 vasp.5.4.1 24Jun15 (build Jan 13 2020 12:58:22) complex                        
  
 executed on           IFC91_ompi date 2020.02.03  09:59:13
 running on   15 total cores
 each image running on    1 cores
 distrk:  each k-point on    1 cores,    1 groups
 distr:  one band on NCORES_PER_BAND=   1 cores,    1 groups


--------------------------------------------------------------------------------------------------------


 INCAR:
 POTCAR:    PAW_PBE H 15Jun2001                   
 POTCAR:    PAW_PBE C 08Apr2002                   
 POTCAR:    PAW_PBE N 08Apr2002                   
 POTCAR:    PAW_PBE O 08Apr2002                   
 POTCAR:    PAW_PBE H 15Jun2001                   
   VRHFIN =H: ultrasoft test                                                    
   LEXCH  = PE                                                                  
   EATOM  =    12.4884 eV,    0.9179 Ry                                         
                                                                                
   TITEL  = PAW_PBE H 15Jun2001                                                 
   LULTRA =        F    use ultrasoft PP ?                                      
   IUNSCR =        0    unscreen: 0-lin 1-nonlin 2-no                           
   RPACOR =    0.000    partial core radius                                     
   POMASS =    1.000; ZVAL   =    1.000    mass and valenz                      
   RCORE  =    1.100    outmost cutoff radius                                   
   RWIGS  =    0.700; RWIGS  =    0.370    wigner-seitz radius (au A)           
   ENMAX  =  250.000; ENMIN  =  200.000 eV                                      
   RCLOC  =    0.701    cutoff for local pot                                    
   LCOR   =        T    correct aug charges                                     
   LPAW   =        T    paw PP                                                  
   EAUG   =  400.000                                                            
   RMAX   =    1.123    core radius for proj-oper                               
   RAUG   =    1.200    factor for augmentation sphere                          
   RDEP   =    1.112    radius for radial grids                                 
   RDEPT  =    0.926    core radius for aug-charge                              
                                                                                
   Atomic configuration                                                         
    2 entries                                                                   
     n  l   j            E        occ.                                          
     1  0  0.50        -6.4927   1.0000                                         
     2  1  0.50        -3.4015   0.0000                                         
   Description                                                                  
     l       E           TYP  RCUT    TYP  RCUT                                 
     0     -6.4927494     23  1.100                                             
     0      6.8029130     23  1.100                                             
     1     -4.0817478     23  1.100                                             
  local pseudopotential read in
  atomic valenz-charges read in
  non local Contribution for L=           0  read in
    real space projection operators read in
  non local Contribution for L=           0  read in
    real space projection operators read in
  non local Contribution for L=           1  read in
    real space projection operators read in
    PAW grid and wavefunctions read in
 
   number of l-projection  operators is LMAX  =           3
   number of lm-projection operators is LMMAX =           5
 
 POTCAR:    PAW_PBE C 08Apr2002                   
   VRHFIN =C: s2p2                                                              
   LEXCH  = PE                                                                  
   EATOM  =   147.1560 eV,   10.8157 Ry                                         
                                                                                
   TITEL  = PAW_PBE C 08Apr2002                                                 
   LULTRA =        F    use ultrasoft PP ?                                      
   IUNSCR =        1    unscreen: 0-lin 1-nonlin 2-no                           
   RPACOR =    1.200    partial core radius                                     
   POMASS =   12.011; ZVAL   =    4.000    mass and valenz                      
   RCORE  =    1.500    outmost cutoff radius                                   
   RWIGS  =    1.630; RWIGS  =    0.863    wigner-seitz radius (au A)           
   ENMAX  =  400.000; ENMIN  =  300.000 eV                                      
   ICORE  =        2    local potential                                         
   LCOR   =        T    correct aug charges                                     
   LPAW   =        T    paw PP                                                  
   EAUG   =  644.873                                                            
   DEXC   =    0.000                                                            
   RMAX   =    1.529    core radius for proj-oper                               
   RAUG   =    1.300    factor for augmentation sphere                          
   RDEP   =    1.501    radius for radial grids                                 
   RDEPT  =    1.300    core radius for aug-charge                              
                                                                                
   Atomic configuration                                                         
    4 entries                                                                   
     n  l   j            E        occ.                                          
     1  0  0.50      -273.3789   2.0000                                         
     2  0  0.50       -13.7508   2.0000                                         
     2  1  0.50        -5.2854   2.0000                                         
     3  2  1.50        -5.4423   0.0000                                         
   Description                                                                  
     l       E           TYP  RCUT    TYP  RCUT                                 
     0    -13.7508458     23  1.200                                             
     0     -8.2022199     23  1.200                                             
     1     -5.2854383     23  1.500                                             
     1     34.0145650     23  1.500                                             
     2     -5.4423304      7  1.500                                             
  local pseudopotential read in
  partial core-charges read in
  partial kinetic energy density read in
  atomic valenz-charges read in
  non local Contribution for L=           0  read in
    real space projection operators read in
  non local Contribution for L=           0  read in
    real space projection operators read in
  non local Contribution for L=           1  read in
    real space projection operators read in
  non local Contribution for L=           1  read in
    real space projection operators read in
    PAW grid and wavefunctions read in
 
   number of l-projection  operators is LMAX  =           4
   number of lm-projection operators is LMMAX =           8
 
 POTCAR:    PAW_PBE N 08Apr2002                   
   VRHFIN =N: s2p3                                                              
   LEXCH  = PE                                                                  
   EATOM  =   264.5486 eV,   19.4438 Ry                                         
                                                                                
   TITEL  = PAW_PBE N 08Apr2002                                                 
   LULTRA =        F    use ultrasoft PP ?                                      
   IUNSCR =        1    unscreen: 0-lin 1-nonlin 2-no                           
   RPACOR =    1.200    partial core radius                                     
   POMASS =   14.001; ZVAL   =    5.000    mass and valenz                      
   RCORE  =    1.500    outmost cutoff radius                                   
   RWIGS  =    1.400; RWIGS  =    0.741    wigner-seitz radius (au A)           
   ENMAX  =  400.000; ENMIN  =  300.000 eV                                      
   ICORE  =        2    local potential                                         
   LCOR   =        T    correct aug charges                                     
   LPAW   =        T    paw PP                                                  
   EAUG   =  627.112                                                            
   DEXC   =    0.000                                                            
   RMAX   =    1.529    core radius for proj-oper                               
   RAUG   =    1.300    factor for augmentation sphere                          
   RDEP   =    1.514    radius for radial grids                                 
   RDEPT  =    1.338    core radius for aug-charge                              
                                                                                
   Atomic configuration                                                         
    4 entries                                                                   
     n  l   j            E        occ.                                          
     1  0  0.50      -384.7179   2.0000                                         
     2  0  0.50       -18.5828   2.0000                                         
     2  1  0.50        -7.0898   3.0000                                         
     3  2  1.50        -6.8029   0.0000                                         
   Description                                                                  
     l       E           TYP  RCUT    TYP  RCUT                                 
     0    -18.5828119     23  1.200                                             
     0    -13.5018863     23  1.200                                             
     1     -7.0897853     23  1.500                                             
     1      9.5240782     23  1.500                                             
     2     -6.8029130      7  1.500                                             
  local pseudopotential read in
  partial core-charges read in
  partial kinetic energy density read in
  atomic valenz-charges read in
  non local Contribution for L=           0  read in
    real space projection operators read in
  non local Contribution for L=           0  read in
    real space projection operators read in
  non local Contribution for L=           1  read in
    real space projection operators read in
  non local Contribution for L=           1  read in
    real space projection operators read in
    PAW grid and wavefunctions read in
 
   number of l-projection  operators is LMAX  =           4
   number of lm-projection operators is LMMAX =           8
 
 POTCAR:    PAW_PBE O 08Apr2002                   
   VRHFIN =O: s2p4                                                              
   LEXCH  = PE                                                                  
   EATOM  =   432.3788 eV,   31.7789 Ry                                         
                                                                                
   TITEL  = PAW_PBE O 08Apr2002                                                 
   LULTRA =        F    use ultrasoft PP ?                                      
   IUNSCR =        1    unscreen: 0-lin 1-nonlin 2-no                           
   RPACOR =    1.200    partial core radius                                     
   POMASS =   16.000; ZVAL   =    6.000    mass and valenz                      
   RCORE  =    1.520    outmost cutoff radius                                   
   RWIGS  =    1.550; RWIGS  =    0.820    wigner-seitz radius (au A)           
   ENMAX  =  400.000; ENMIN  =  300.000 eV                                      
   ICORE  =        2    local potential                                         
   LCOR   =        T    correct aug charges                                     
   LPAW   =        T    paw PP                                                  
   EAUG   =  605.392                                                            
   DEXC   =    0.000                                                            
   RMAX   =    1.553    core radius for proj-oper                               
   RAUG   =    1.300    factor for augmentation sphere                          
   RDEP   =    1.550    radius for radial grids                                 
   RDEPT  =    1.329    core radius for aug-charge                              
                                                                                
   Atomic configuration                                                         
    4 entries                                                                   
     n  l   j            E        occ.                                          
     1  0  0.50      -514.6923   2.0000                                         
     2  0  0.50       -23.9615   2.0000                                         
     2  1  0.50        -9.0305   4.0000                                         
     3  2  1.50        -9.5241   0.0000                                         
   Description                                                                  
     l       E           TYP  RCUT    TYP  RCUT                                 
     0    -23.9615318     23  1.200                                             
     0     -9.5240782     23  1.200                                             
     1     -9.0304911     23  1.520                                             
     1      8.1634956     23  1.520                                             
     2     -9.5240782      7  1.500                                             
  local pseudopotential read in
  partial core-charges read in
  partial kinetic energy density read in
  kinetic energy density of atom read in
  atomic valenz-charges read in
  non local Contribution for L=           0  read in
    real space projection operators read in
  non local Contribution for L=           0  read in
    real space projection operators read in
  non local Contribution for L=           1  read in
    real space projection operators read in
  non local Contribution for L=           1  read in
    real space projection operators read in
    PAW grid and wavefunctions read in
 
   number of l-projection  operators is LMAX  =           4
   number of lm-projection operators is LMMAX =           8
 
 Optimization of the real space projectors (new method)

 maximal supplied QI-value         = 34.20
 optimisation between [QCUT,QGAM] = [  9.92, 20.18] = [ 27.55,114.04] Ry 
 Optimized for a Real-space Cutoff    1.26 Angstroem

   l    n(q)    QCUT    max X(q) W(low)/X(q) W(high)/X(q)  e(spline) 
   0      8     9.919    19.460    0.50E-03    0.23E-03    0.29E-06
   0      8     9.919    12.209    0.48E-03    0.23E-03    0.28E-06
   1      7     9.919     4.655    0.17E-03    0.75E-03    0.30E-06
 Optimization of the real space projectors (new method)

 maximal supplied QI-value         = 25.13
 optimisation between [QCUT,QGAM] = [ 10.05, 20.36] = [ 28.30,116.06] Ry 
 Optimized for a Real-space Cutoff    1.30 Angstroem

   l    n(q)    QCUT    max X(q) W(low)/X(q) W(high)/X(q)  e(spline) 
   0      8    10.053   115.676    0.49E-03    0.72E-03    0.18E-06
   0      8    10.053    87.132    0.49E-03    0.71E-03    0.18E-06
   1      7    10.053     4.429    0.32E-03    0.31E-03    0.18E-06
   1      7    10.053     2.733    0.23E-03    0.19E-03    0.20E-06
 Optimization of the real space projectors (new method)

 maximal supplied QI-value         = 25.13
 optimisation between [QCUT,QGAM] = [ 10.05, 20.36] = [ 28.30,116.06] Ry 
 Optimized for a Real-space Cutoff    1.65 Angstroem

   l    n(q)    QCUT    max X(q) W(low)/X(q) W(high)/X(q)  e(spline) 
   0     10    10.053    79.467    0.76E-04    0.72E-04    0.56E-06
   0     10    10.053    66.151    0.76E-04    0.72E-04    0.55E-06
   1     10    10.053     8.350    0.25E-03    0.92E-03    0.41E-05
   1     10    10.053     5.531    0.27E-03    0.10E-02    0.45E-05
 Optimization of the real space projectors (new method)

 maximal supplied QI-value         = 24.76
 optimisation between [QCUT,QGAM] = [ 10.15, 20.30] = [ 28.85,115.39] Ry 
 Optimized for a Real-space Cutoff    1.38 Angstroem

   l    n(q)    QCUT    max X(q) W(low)/X(q) W(high)/X(q)  e(spline) 
   0      8    10.150    20.381    0.22E-03    0.32E-03    0.29E-06
   0      8    10.150    15.268    0.23E-03    0.35E-03    0.30E-06
   1      8    10.150     5.964    0.46E-03    0.53E-03    0.21E-06
   1      8    10.150     5.382    0.38E-03    0.45E-03    0.19E-06
  PAW_PBE H 15Jun2001                   :
 energy of atom  1       EATOM=  -12.4884
 kinetic energy error for atom=    0.0098 (will be added to EATOM!!)
  PAW_PBE C 08Apr2002                   :
 energy of atom  2       EATOM= -147.1560
 kinetic energy error for atom=    0.0288 (will be added to EATOM!!)
  PAW_PBE N 08Apr2002                   :
 energy of atom  3       EATOM= -264.5486
 kinetic energy error for atom=    0.0736 (will be added to EATOM!!)
  PAW_PBE O 08Apr2002                   :
 energy of atom  4       EATOM= -432.3788
 kinetic energy error for atom=    0.1156 (will be added to EATOM!!)
 
 
 POSCAR: H12 C6 N2 O2                            
  positions in direct lattice
  velocities in cartesian coordinates
 exchange correlation table for  LEXCH =        8
   RHO(1)=    0.500       N(1)  =     2000
   RHO(2)=  100.500       N(2)  =     4000

 VTST: version 3.2, (02/03/18)

 CHAIN: initializing optimizer
 
 OPT: Using FIRE optimizer
 OPT: FIRE, Init
 OPT: FIRE, MAXMOVE       0.20000
 OPT: FIRE, TIMESTEP      0.10000
 OPT: FIRE, FTIMEMAX      1.00000
 OPT: FIRE, FTIMEINC      1.10000
 OPT: FIRE, FTIMEDEC      0.50000
 OPT: FIRE, FALPHADEC     0.99000
 OPT: FIRE, FALPHA        0.10000
 OPT: FIRE, FNMIN         5
 
 CHAIN: Read ICHAIN            0
 CHAIN: Running the NEB
 NEB:          SPRING     -5.000000
 NEB:          LCLIMB      T
 NEB:     LTANGENTOLD      F
 NEB:           LDNEB      F
 NEB:        LDNEBORG      F
 NEB:        LNEBCELL      F
 NEB:          EFIRST      0.000000
 NEB:           ELAST      0.000000
 
 POSCAR: H12 C6 N2 O2                            
  positions in direct lattice
  No initial velocities read in
 
 POSCAR: H12 C6 N2 O2                            
  positions in direct lattice
  No initial velocities read in
 


--------------------------------------------------------------------------------------------------------


 ion  position               nearest neighbor table
   1  0.374  0.540  0.498-  13 1.09
   2  0.385  0.492  0.465-  13 1.10
   3  0.380  0.487  0.524-  13 1.10
   4  0.450  0.454  0.486-  19 1.02
   5  0.506  0.455  0.551-  15 1.10
   6  0.559  0.416  0.494-  16 1.10
   7  0.519  0.434  0.453-  16 1.10
   8  0.503  0.396  0.495-  16 1.10
   9  0.511  0.553  0.512-  20 1.04
  10  0.610  0.552  0.497-  18 1.10
  11  0.573  0.576  0.456-  18 1.11
  12  0.580  0.602  0.509-  18 1.10
  13  0.392  0.509  0.497-   1 1.09   2 1.10   3 1.10  14 1.51
  14  0.441  0.517  0.505-  21 1.24  19 1.36  13 1.51
  15  0.511  0.466  0.516-   5 1.10  19 1.48  16 1.54  17 1.55
  16  0.524  0.425  0.488-   6 1.10   8 1.10   7 1.10  15 1.54
  17  0.551  0.498  0.516-  22 1.24  20 1.35  15 1.55
  18  0.579  0.570  0.492-  12 1.10  10 1.10  11 1.11  20 1.45
  19  0.467  0.480  0.499-   4 1.02  14 1.36  15 1.48
  20  0.543  0.542  0.510-   9 1.04  17 1.35  18 1.45
  21  0.455  0.554  0.517-  14 1.24
  22  0.588  0.481  0.520-  17 1.24
 
  LATTYP: Found a simple cubic cell.
 ALAT       =    30.0000000000
  
  Lattice vectors:
  
 A1 = (  30.0000000000,   0.0000000000,   0.0000000000)
 A2 = (   0.0000000000,  30.0000000000,   0.0000000000)
 A3 = (   0.0000000000,   0.0000000000,  30.0000000000)


Analysis of symmetry for initial positions (statically):
=====================================================================
 Subroutine PRICEL returns:
 Original cell was already a primitive cell.
 

 Routine SETGRP: Setting up the symmetry group for a 
 simple cubic supercell.


 Subroutine GETGRP returns: Found  1 space group operations
 (whereof  1 operations were pure point group operations)
 out of a pool of 48 trial point group operations.


The static configuration has the point symmetry C_1 .


Analysis of symmetry for dynamics (positions and initial velocities):
=====================================================================
 Subroutine PRICEL returns:
 Original cell was already a primitive cell.
 

 Routine SETGRP: Setting up the symmetry group for a 
 simple cubic supercell.


 Subroutine GETGRP returns: Found  1 space group operations
 (whereof  1 operations were pure point group operations)
 out of a pool of 48 trial point group operations.


The dynamic configuration has the point symmetry C_1 .
 
 
 KPOINTS: Mo2C                                    

Automatic generation of k-mesh.
Space group operators:
 irot       det(A)        alpha          n_x          n_y          n_z        tau_x        tau_y        tau_z
    1     1.000000     0.000000     1.000000     0.000000     0.000000     0.000000     0.000000     0.000000
 
 Subroutine IBZKPT returns following result:
 ===========================================
 
 Found      4 irreducible k-points:
 
 Following reciprocal coordinates:
            Coordinates               Weight
  0.250000  0.250000  0.250000      2.000000
 -0.250000  0.250000  0.250000      2.000000
  0.250000 -0.250000  0.250000      2.000000
 -0.250000 -0.250000  0.250000      2.000000
 
 Following cartesian coordinates:
            Coordinates               Weight
  0.008333  0.008333  0.008333      2.000000
 -0.008333  0.008333  0.008333      2.000000
  0.008333 -0.008333  0.008333      2.000000
 -0.008333 -0.008333  0.008333      2.000000
 


--------------------------------------------------------------------------------------------------------




 Dimension of arrays:
   k-points           NKPTS =      4   k-points in BZ     NKDIM =      4   number of bands    NBANDS=     41
   number of dos      NEDOS =    301   number of ions     NIONS =     22
   non local maximal  LDIM  =      4   non local SUM 2l+1 LMDIM =      8
   total plane-waves  NPLWV = ******
   max r-space proj   IRMAX =   2395   max aug-charges    IRDMAX=   1821
   dimension x,y,z NGX =   150 NGY =  150 NGZ =  150
   dimension x,y,z NGXF=   300 NGYF=  300 NGZF=  300
   support grid    NGXF=   300 NGYF=  300 NGZF=  300
   ions per type =              12   6   2   2
 NGX,Y,Z   is equivalent  to a cutoff of   8.31,  8.31,  8.31 a.u.
 NGXF,Y,Z  is equivalent  to a cutoff of  16.62, 16.62, 16.62 a.u.


 I would recommend the setting:
   dimension x,y,z NGX =   147 NGY =  147 NGZ =  147
 SYSTEM =  unknown system                          
 POSCAR =  H12 C6 N2 O2                            

 Startparameter for this run:
   NWRITE =      2    write-flag & timer
   PREC   = normal    normal or accurate (medium, high low for compatibility)
   ISTART =      0    job   : 0-new  1-cont  2-samecut
   ICHARG =      2    charge: 1-file 2-atom 10-const
   ISPIN  =      1    spin polarized calculation?
   LNONCOLLINEAR =      F non collinear calculations
   LSORBIT =      F    spin-orbit coupling
   INIWAV =      1    electr: 0-lowe 1-rand  2-diag
   LASPH  =      F    aspherical Exc in radial PAW
   METAGGA=      F    non-selfconsistent MetaGGA calc.

 Electronic Relaxation 1
   ENCUT  =  400.0 eV  29.40 Ry    5.42 a.u.  48.92 48.92 48.92*2*pi/ulx,y,z
   ENINI  =  400.0     initial cutoff
   ENAUG  =  644.9 eV  augmentation charge cutoff
   NELM   =    500;   NELMIN=  6; NELMDL= -5     # of ELM steps 
   EDIFF  = 0.1E-03   stopping-criterion for ELM
   LREAL  =      T    real-space projection
   NLSPLINE    = F    spline interpolate recip. space projectors
   LCOMPAT=      F    compatible to vasp.4.4
   GGA_COMPAT  = T    GGA compatible to vasp.4.4-vasp.4.6
   LMAXPAW     = -100 max onsite density
   LMAXMIX     =    2 max onsite mixed and CHGCAR
   VOSKOWN=      0    Vosko Wilk Nusair interpolation
   ROPT   =   -0.00050  -0.00050  -0.00050  -0.00050
 Ionic relaxation
   EDIFFG = -.1E+00   stopping-criterion for IOM
   NSW    =    300    number of steps for IOM
   NBLOCK =      1;   KBLOCK =    300    inner block; outer block 
   IBRION =      3    ionic relax: 0-MD 1-quasi-New 2-CG
   NFREE  =      0    steps in history (QN), initial steepest desc. (CG)
   ISIF   =      2    stress and relaxation
   IWAVPR =     11    prediction:  0-non 1-charg 2-wave 3-comb
   ISYM   =      2    0-nonsym 1-usesym 2-fastsym
   LCORR  =      T    Harris-Foulkes like correction to forces

   POTIM  = 0.0000    time-step for ionic-motion
   TEIN   =    0.0    initial temperature
   TEBEG  =    0.0;   TEEND  =   0.0 temperature during run
   SMASS  =   2.00    Nose mass-parameter (am)
   estimated Nose-frequenzy (Omega)   =  0.24E+10 period in steps =  0.00 mass=   0.137E-25a.u.
   SCALEE = 1.0000    scale energy and forces
   NPACO  =    256;   APACO  = 16.0  distance and # of slots for P.C.
   PSTRESS=    0.0 pullay stress

  Mass of Ions in am
   POMASS =   1.00 12.01 14.00 16.00
  Ionic Valenz
   ZVAL   =   1.00  4.00  5.00  6.00
  Atomic Wigner-Seitz radii
   RWIGS  =  -1.00 -1.00 -1.00 -1.00
  virtual crystal weights 
   VCA    =   1.00  1.00  1.00  1.00
   NELECT =      58.0000    total number of electrons
   NUPDOWN=      -1.0000    fix difference up-down

 DOS related values:
   EMIN   =  10.00;   EMAX   =-10.00  energy-range for DOS
   EFERMI =   0.00
   ISMEAR =     0;   SIGMA  =   0.20  broadening in eV -4-tet -1-fermi 0-gaus

 Electronic relaxation 2 (details)
   IALGO  =     38    algorithm
   LDIAG  =      T    sub-space diagonalisation (order eigenvalues)
   LSUBROT=      F    optimize rotation matrix (better conditioning)
   TURBO    =      0    0=normal 1=particle mesh
   IRESTART =      0    0=no restart 2=restart with 2 vectors
   NREBOOT  =      0    no. of reboots
   NMIN     =      0    reboot dimension
   EREF     =   0.00    reference energy to select bands
   IMIX   =      4    mixing-type and parameters
     AMIX     =   0.40;   BMIX     =  1.00
     AMIX_MAG =   1.60;   BMIX_MAG =  1.00
     AMIN     =   0.10
     WC   =   100.;   INIMIX=   1;  MIXPRE=   1;  MAXMIX= -45

 Intra band minimization:
   WEIMIN = 0.0010     energy-eigenvalue tresh-hold
   EBREAK =  0.61E-06  absolut break condition
   DEPER  =   0.30     relativ break condition  

   TIME   =   0.40     timestep for ELM

  volume/ion in A,a.u.               =    1227.27      8282.05
  Fermi-wavevector in a.u.,A,eV,Ry     =   0.211234  0.399174  0.607087  0.044620
  Thomas-Fermi vector in A             =   0.980021
 
 Write flags
   LWAVE  =      F    write WAVECAR
   LCHARG =      F    write CHGCAR
   LVTOT  =      F    write LOCPOT, total local potential
   LVHAR  =      F    write LOCPOT, Hartree potential only
   LELF   =      F    write electronic localiz. function (ELF)
   LORBIT =      0    0 simple, 1 ext, 2 COOP (PROOUT)


 Dipole corrections
   LMONO  =      F    monopole corrections only (constant potential shift)
   LDIPOL =      F    correct potential (dipole corrections)
   IDIPOL =      0    1-x, 2-y, 3-z, 4-all directions 
   EPSILON=  1.0000000 bulk dielectric constant

 Exchange correlation treatment:
   GGA     =    PE    GGA type
   LEXCH   =     8    internal setting for exchange type
   VOSKOWN=      0    Vosko Wilk Nusair interpolation
   LHFCALC =     F    Hartree Fock is set to
   LHFONE  =     F    Hartree Fock one center treatment
   AEXX    =    0.0000 exact exchange contribution

 Linear response parameters
   LEPSILON=     F    determine dielectric tensor
   LRPA    =     F    only Hartree local field effects (RPA)
   LNABLA  =     F    use nabla operator in PAW spheres
   LVEL    =     F    velocity operator in full k-point grid
   LINTERFAST=   F  fast interpolation
   KINTER  =     0    interpolate to denser k-point grid
   CSHIFT  =0.1000    complex shift for real part using Kramers Kronig
   OMEGAMAX=  -1.0    maximum frequency
   DEG_THRESHOLD= 0.2000000E-02 threshold for treating states as degnerate
   RTIME   =    0.100 relaxation time in fs

 Orbital magnetization related:
   ORBITALMAG=     F  switch on orbital magnetization
   LCHIMAG   =     F  perturbation theory with respect to B field
   DQ        =  0.001000  dq finite difference perturbation B field



--------------------------------------------------------------------------------------------------------


 quickmin algorithm: (dynamic with friction)
 charge density and potential will be updated during run
 non-spin polarized calculation
 Variant of blocked Davidson
 Davidson routine will perform the subspace rotation
 perform sub-space diagonalisation
    after iterative eigenvector-optimisation
 modified Broyden-mixing scheme, WC =      100.0
 initial mixing is a Kerker type mixing with AMIX =  0.4000 and BMIX =      1.0000
 Hartree-type preconditioning will be used
 using additional bands           12
 real space projection scheme for non local part
 use partial core corrections
 calculate Harris-corrections to forces 
   (improved forces if not selfconsistent)
 use gradient corrections 
 use of overlap-Matrix (Vanderbilt PP)
 Gauss-broadening in eV      SIGMA  =   0.20


--------------------------------------------------------------------------------------------------------


  energy-cutoff  :      400.00
  volume of cell :    27000.00
      direct lattice vectors                 reciprocal lattice vectors
    30.000000000  0.000000000  0.000000000     0.033333333  0.000000000  0.000000000
     0.000000000 30.000000000  0.000000000     0.000000000  0.033333333  0.000000000
     0.000000000  0.000000000 30.000000000     0.000000000  0.000000000  0.033333333

  length of vectors
    30.000000000 30.000000000 30.000000000     0.033333333  0.033333333  0.033333333


 
 k-points in units of 2pi/SCALE and weight: Mo2C                                    
   0.00833333  0.00833333  0.00833333       0.250
  -0.00833333  0.00833333  0.00833333       0.250
   0.00833333 -0.00833333  0.00833333       0.250
  -0.00833333 -0.00833333  0.00833333       0.250
 
 k-points in reciprocal lattice and weights: Mo2C                                    
   0.25000000  0.25000000  0.25000000       0.250
  -0.25000000  0.25000000  0.25000000       0.250
   0.25000000 -0.25000000  0.25000000       0.250
  -0.25000000 -0.25000000  0.25000000       0.250
 
 position of ions in fractional coordinates (direct lattice) 
   0.37423902  0.54033269  0.49833856
   0.38520494  0.49197039  0.46481797
   0.37992988  0.48659137  0.52381007
   0.45010382  0.45350518  0.48633320
   0.50633570  0.45470043  0.55130362
   0.55895708  0.41589544  0.49350354
   0.51935372  0.43390131  0.45266941
   0.50259592  0.39613890  0.49482294
   0.51070958  0.55321931  0.51193122
   0.61022092  0.55243359  0.49682462
   0.57262794  0.57561678  0.45622006
   0.58043008  0.60248035  0.50896636
   0.39195880  0.50850788  0.49683672
   0.44107297  0.51687671  0.50480192
   0.51093766  0.46555262  0.51643033
   0.52402606  0.42503505  0.48792669
   0.55089025  0.49813136  0.51601151
   0.57852833  0.57007011  0.49217148
   0.46701830  0.47997897  0.49913685
   0.54342382  0.54202497  0.50994975
   0.45464598  0.55420612  0.51654236
   0.58843809  0.48126712  0.51994358
 
 position of ions in cartesian coordinates  (Angst):
  11.22717069 16.20998057 14.95015693
  11.55614822 14.75911185 13.94453923
  11.39789652 14.59774125 15.71430208
  13.50311475 13.60515529 14.58999597
  15.19007101 13.64101279 16.53910861
  16.76871229 12.47686312 14.80510605
  15.58061154 13.01703934 13.58008217
  15.07787753 11.88416700 14.84468813
  15.32128728 16.59657917 15.35793662
  18.30662754 16.57300773 14.90473869
  17.17883824 17.26850351 13.68660173
  17.41290232 18.07441052 15.26899094
  11.75876402 15.25523650 14.90510153
  13.23218916 15.50630137 15.14405774
  15.32812992 13.96657852 15.49291003
  15.72078178 12.75105163 14.63780074
  16.52670761 14.94394090 15.48034516
  17.35585004 17.10210344 14.76514441
  14.01054904 14.39936911 14.97410547
  16.30271472 16.26074909 15.29849260
  13.63937944 16.62618373 15.49627074
  17.65314278 14.43801358 15.59830734
 


--------------------------------------------------------------------------------------------------------


 k-point  1 :   0.2500 0.2500 0.2500  plane waves:  490454
 k-point  2 :  -0.2500 0.2500 0.2500  plane waves:  490454
 k-point  3 :   0.2500-0.2500 0.2500  plane waves:  490454
 k-point  4 :  -0.2500-0.2500 0.2500  plane waves:  490454

 maximum and minimum number of plane-waves per node :    490454   490454

 maximum number of plane-waves:    490454
 maximum index in each direction: 
   IXMAX=   49   IYMAX=   49   IZMAX=   48
   IXMIN=  -49   IYMIN=  -49   IZMIN=  -49

 WARNING: aliasing errors must be expected set NGX to 198 to avoid them
 WARNING: aliasing errors must be expected set NGY to 198 to avoid them
 WARNING: aliasing errors must be expected set NGZ to 196 to avoid them
 aliasing errors are usually negligible using standard VASP settings
 and one can safely disregard these warnings

 serial   3D FFT for wavefunctions
 parallel 3D FFT for charge:
    minimum data exchange during FFTs selected (reduces bandwidth)


 total amount of memory used by VASP on root node  4333715. kBytes
========================================================================

   base      :      30000. kBytes
   nonlr-proj:       2410. kBytes
   fftplans  :     924480. kBytes
   grid      :    2089440. kBytes
   one-center:         67. kBytes
   wavefun   :    1287318. kBytes
 
     INWAV:  cpu time    0.0000: real time    0.0003
 Broyden mixing: mesh for mixing (old mesh)
   NGX = 97   NGY = 97   NGZ = 97
  (NGX  =300   NGY  =300   NGZ  =300)
  gives a total of 912673 points

 initial charge density was supplied:
 charge density of overlapping atoms calculated
 number of electron      58.0000000 magnetization 
 keeping initial charge density in first step


--------------------------------------------------------------------------------------------------------


 Maximum index for non-local projection operator         2296
 Maximum index for augmentation-charges         1582 (set IRDMAX)


--------------------------------------------------------------------------------------------------------


 First call to EWALD:  gamma=   0.059
 Maximum number of real-space cells 3x 3x 3
 Maximum number of reciprocal cells 3x 3x 3

 FEWALD executed in parallel
    FEWALD:  cpu time    0.0050: real time    0.0048


----------------------------------------- Iteration    1(   1)  ---------------------------------------


    POTLOK:  cpu time   19.8080: real time   19.7922
    SETDIJ:  cpu time    0.0290: real time    0.0283
     EDDAV:  cpu time  251.7857: real time  251.5764
       DOS:  cpu time    0.0000: real time    0.0009
    --------------------------------------------
      LOOP:  cpu time  271.6247: real time  271.4019

 eigenvalue-minimisations  :   392
 total energy-change (2. order) : 0.6089714E+03  (-0.7984590E+03)
 number of electron      58.0000000 magnetization 
 augmentation part       58.0000000 magnetization 

 Free energy of the ion-electron system (eV)
  ---------------------------------------------------
  alpha Z        PSCENC =         0.51957394
  Ewald energy   TEWEN  =      6078.86633802
  -Hartree energ DENC   =     -7820.80134898
  -exchange      EXHF   =         0.00000000
  -V(xc)+E(xc)   XCENC  =       202.21132805
  PAW double counting   =      1779.70502452    -1789.20730229
  entropy T*S    EENTRO =        -0.80193997
  eigenvalues    EBANDS =      -267.50363033
  atomic energy  EATOM  =      2425.98333211
  Solvation  Ediel_sol  =         0.00000000
  ---------------------------------------------------
  free energy    TOTEN  =       608.97137507 eV

  energy without entropy =      609.77331504  energy(sigma->0) =      609.37234505


--------------------------------------------------------------------------------------------------------




----------------------------------------- Iteration    1(   2)  ---------------------------------------


     EDDAV:  cpu time  354.8431: real time  354.5485
       DOS:  cpu time    0.0000: real time    0.0008
    --------------------------------------------
      LOOP:  cpu time  354.8451: real time  354.5519

 eigenvalue-minimisations  :   595
 total energy-change (2. order) :-0.3457059E+03  (-0.3347463E+03)
 number of electron      58.0000000 magnetization 
 augmentation part       58.0000000 magnetization 

 Free energy of the ion-electron system (eV)
  ---------------------------------------------------
  alpha Z        PSCENC =         0.51957394
  Ewald energy   TEWEN  =      6078.86633802
  -Hartree energ DENC   =     -7820.80134898
  -exchange      EXHF   =         0.00000000
  -V(xc)+E(xc)   XCENC  =       202.21132805
  PAW double counting   =      1779.70502452    -1789.20730229
  entropy T*S    EENTRO =        -0.39351230
  eigenvalues    EBANDS =      -613.61795199
  atomic energy  EATOM  =      2425.98333211
  Solvation  Ediel_sol  =         0.00000000
  ---------------------------------------------------
  free energy    TOTEN  =       263.26548108 eV

  energy without entropy =      263.65899338  energy(sigma->0) =      263.46223723


--------------------------------------------------------------------------------------------------------




----------------------------------------- Iteration    1(   3)  ---------------------------------------


     EDDAV:  cpu time  303.9448: real time  303.6929
       DOS:  cpu time    0.0000: real time    0.0006
    --------------------------------------------
      LOOP:  cpu time  303.9458: real time  303.6967

 eigenvalue-minimisations  :   496
 total energy-change (2. order) :-0.3097063E+03  (-0.3022088E+03)
 number of electron      58.0000000 magnetization 
 augmentation part       58.0000000 magnetization 

 Free energy of the ion-electron system (eV)
  ---------------------------------------------------
  alpha Z        PSCENC =         0.51957394
  Ewald energy   TEWEN  =      6078.86633802
  -Hartree energ DENC   =     -7820.80134898
  -exchange      EXHF   =         0.00000000
  -V(xc)+E(xc)   XCENC  =       202.21132805
  PAW double counting   =      1779.70502452    -1789.20730229
  entropy T*S    EENTRO =        -0.00251702
  eigenvalues    EBANDS =      -923.71529323
  atomic energy  EATOM  =      2425.98333211
  Solvation  Ediel_sol  =         0.00000000
  ---------------------------------------------------
  free energy    TOTEN  =       -46.44086489 eV

  energy without entropy =      -46.43834786  energy(sigma->0) =      -46.43960638


--------------------------------------------------------------------------------------------------------




----------------------------------------- Iteration    1(   4)  ---------------------------------------


     EDDAV:  cpu time  253.5934: real time  253.3839
       DOS:  cpu time    0.0000: real time    0.0005
    --------------------------------------------
      LOOP:  cpu time  253.5954: real time  253.3871

 eigenvalue-minimisations  :   397
 total energy-change (2. order) :-0.9029020E+02  (-0.9011328E+02)
 number of electron      58.0000000 magnetization 
 augmentation part       58.0000000 magnetization 

 Free energy of the ion-electron system (eV)
  ---------------------------------------------------
  alpha Z        PSCENC =         0.51957394
  Ewald energy   TEWEN  =      6078.86633802
  -Hartree energ DENC   =     -7820.80134898
  -exchange      EXHF   =         0.00000000
  -V(xc)+E(xc)   XCENC  =       202.21132805
  PAW double counting   =      1779.70502452    -1789.20730229
  entropy T*S    EENTRO =         0.00000000
  eigenvalues    EBANDS =     -1014.00801400
  atomic energy  EATOM  =      2425.98333211
  Solvation  Ediel_sol  =         0.00000000
  ---------------------------------------------------
  free energy    TOTEN  =      -136.73106863 eV

  energy without entropy =     -136.73106863  energy(sigma->0) =     -136.73106863


--------------------------------------------------------------------------------------------------------




----------------------------------------- Iteration    1(   5)  ---------------------------------------


     EDDAV:  cpu time  287.2793: real time  287.0414
       DOS:  cpu time    0.0000: real time    0.0005
    CHARGE:  cpu time   16.6835: real time   16.6693
    MIXING:  cpu time    0.5889: real time    0.5883
    --------------------------------------------
      LOOP:  cpu time  304.5527: real time  304.7849

 eigenvalue-minimisations  :   463
 total energy-change (2. order) :-0.4754827E+01  (-0.4742773E+01)
 number of electron      58.0000009 magnetization 
 augmentation part        2.9677601 magnetization 

 Broyden mixing:
  rms(total) = 0.19520E+01    rms(broyden)= 0.19498E+01
  rms(prec ) = 0.20270E+01
  weight for this iteration     100.00

 Free energy of the ion-electron system (eV)
  ---------------------------------------------------
  alpha Z        PSCENC =         0.51957394
  Ewald energy   TEWEN  =      6078.86633802
  -Hartree energ DENC   =     -7820.80134898
  -exchange      EXHF   =         0.00000000
  -V(xc)+E(xc)   XCENC  =       202.21132805
  PAW double counting   =      1779.70502452    -1789.20730229
  entropy T*S    EENTRO =         0.00000000
  eigenvalues    EBANDS =     -1018.76284134
  atomic energy  EATOM  =      2425.98333211
  Solvation  Ediel_sol  =         0.00000000
  ---------------------------------------------------
  free energy    TOTEN  =      -141.48589597 eV

  energy without entropy =     -141.48589597  energy(sigma->0) =     -141.48589597


--------------------------------------------------------------------------------------------------------




----------------------------------------- Iteration    1(   6)  ---------------------------------------


    POTLOK:  cpu time   18.3942: real time   18.3794
    SETDIJ:  cpu time    0.0280: real time    0.0283
     EDDAV:  cpu time  275.0632: real time  274.8340
       DOS:  cpu time    0.0000: real time    0.0005
    CHARGE:  cpu time   16.4615: real time   16.4478
    MIXING:  cpu time    0.6309: real time    0.6311
    --------------------------------------------
      LOOP:  cpu time  310.5798: real time  310.3244

 eigenvalue-minimisations  :   436
 total energy-change (2. order) : 0.1009814E+02  (-0.2362225E+01)
 number of electron      58.0000006 magnetization 
 augmentation part        2.6323527 magnetization 

 Broyden mixing:
  rms(total) = 0.99607E+00    rms(broyden)= 0.99562E+00
  rms(prec ) = 0.10242E+01
  weight for this iteration     100.00

 eigenvalues of (default mixing * dielectric matrix)
  average eigenvalue GAMMA=   1.2849
  1.2849

 Free energy of the ion-electron system (eV)
  ---------------------------------------------------
  alpha Z        PSCENC =         0.51957394
  Ewald energy   TEWEN  =      6078.86633802
  -Hartree energ DENC   =     -7935.14280223
  -exchange      EXHF   =         0.00000000
  -V(xc)+E(xc)   XCENC  =       208.24713586
  PAW double counting   =      2773.45301262    -2784.30355806
  entropy T*S    EENTRO =         0.00000000
  eigenvalues    EBANDS =      -899.01079312
  atomic energy  EATOM  =      2425.98333211
  Solvation  Ediel_sol  =         0.00000000
  ---------------------------------------------------
  free energy    TOTEN  =      -131.38776086 eV

  energy without entropy =     -131.38776086  energy(sigma->0) =     -131.38776086


--------------------------------------------------------------------------------------------------------




----------------------------------------- Iteration    1(   7)  ---------------------------------------


    POTLOK:  cpu time   18.3582: real time   18.3429
    SETDIJ:  cpu time    0.0280: real time    0.0284
     EDDAV:  cpu time  273.2095: real time  272.9823
       DOS:  cpu time    0.0010: real time    0.0005
    CHARGE:  cpu time   16.4545: real time   16.4415
    MIXING:  cpu time    0.6669: real time    0.6666
    --------------------------------------------
      LOOP:  cpu time  308.7201: real time  308.4646

 eigenvalue-minimisations  :   432
 total energy-change (2. order) : 0.1759715E+01  (-0.4544690E+00)
 number of electron      58.0000007 magnetization 
 augmentation part        2.6179057 magnetization 

 Broyden mixing:
  rms(total) = 0.51214E+00    rms(broyden)= 0.51203E+00
  rms(prec ) = 0.52469E+00
  weight for this iteration     100.00

 eigenvalues of (default mixing * dielectric matrix)
  average eigenvalue GAMMA=   1.5772
  1.1155  2.0388

 Free energy of the ion-electron system (eV)
  ---------------------------------------------------
  alpha Z        PSCENC =         0.51957394
  Ewald energy   TEWEN  =      6078.86633802
  -Hartree energ DENC   =     -7997.56644938
  -exchange      EXHF   =         0.00000000
  -V(xc)+E(xc)   XCENC  =       211.31088245
  PAW double counting   =      3748.12800594    -3759.25996830
  entropy T*S    EENTRO =         0.00000000
  eigenvalues    EBANDS =      -837.60976049
  atomic energy  EATOM  =      2425.98333211
  Solvation  Ediel_sol  =         0.00000000
  ---------------------------------------------------
  free energy    TOTEN  =      -129.62804570 eV

  energy without entropy =     -129.62804570  energy(sigma->0) =     -129.62804570


--------------------------------------------------------------------------------------------------------




----------------------------------------- Iteration    1(   8)  ---------------------------------------


    POTLOK:  cpu time   18.4042: real time   18.3889
    SETDIJ:  cpu time    0.0280: real time    0.0284
     EDDAV:  cpu time  281.1823: real time  280.9487
       DOS:  cpu time    0.0000: real time    0.0005
    CHARGE:  cpu time   16.4335: real time   16.4195
    MIXING:  cpu time    0.6889: real time    0.6889
    --------------------------------------------
      LOOP:  cpu time  316.7398: real time  316.4819

 eigenvalue-minimisations  :   448
 total energy-change (2. order) : 0.4886299E+00  (-0.8585775E-01)
 number of electron      58.0000006 magnetization 
 augmentation part        2.5912408 magnetization 

 Broyden mixing:
  rms(total) = 0.14959E+00    rms(broyden)= 0.14952E+00
  rms(prec ) = 0.15726E+00
  weight for this iteration     100.00

 eigenvalues of (default mixing * dielectric matrix)
  average eigenvalue GAMMA=   1.5414
  2.3841  0.9543  1.2856

 Free energy of the ion-electron system (eV)
  ---------------------------------------------------
  alpha Z        PSCENC =         0.51957394
  Ewald energy   TEWEN  =      6078.86633802
  -Hartree energ DENC   =     -8038.07123472
  -exchange      EXHF   =         0.00000000
  -V(xc)+E(xc)   XCENC  =       213.42113152
  PAW double counting   =      4569.91000415    -4581.22557483
  entropy T*S    EENTRO =         0.00000000
  eigenvalues    EBANDS =      -798.54298604
  atomic energy  EATOM  =      2425.98333211
  Solvation  Ediel_sol  =         0.00000000
  ---------------------------------------------------
  free energy    TOTEN  =      -129.13941585 eV

  energy without entropy =     -129.13941584  energy(sigma->0) =     -129.13941585


--------------------------------------------------------------------------------------------------------




----------------------------------------- Iteration    1(   9)  ---------------------------------------


    POTLOK:  cpu time   18.4732: real time   18.4578
    SETDIJ:  cpu time    0.0290: real time    0.0287
     EDDAV:  cpu time  289.7330: real time  289.4920
       DOS:  cpu time    0.0000: real time    0.0005
    CHARGE:  cpu time   16.4265: real time   16.4136
    MIXING:  cpu time    0.7389: real time    0.7377
    --------------------------------------------
      LOOP:  cpu time  325.4025: real time  325.7792

 eigenvalue-minimisations  :   464
 total energy-change (2. order) : 0.6701158E-01  (-0.9701844E-02)
 number of electron      58.0000006 magnetization 
 augmentation part        2.5832539 magnetization 

 Broyden mixing:
  rms(total) = 0.56220E-01    rms(broyden)= 0.56192E-01
  rms(prec ) = 0.64750E-01
  weight for this iteration     100.00

 eigenvalues of (default mixing * dielectric matrix)
  average eigenvalue GAMMA=   1.5196
  2.1903  1.0504  1.0504  1.7872

 Free energy of the ion-electron system (eV)
  ---------------------------------------------------
  alpha Z        PSCENC =         0.51957394
  Ewald energy   TEWEN  =      6078.86633802
  -Hartree energ DENC   =     -8051.46873294
  -exchange      EXHF   =         0.00000000
  -V(xc)+E(xc)   XCENC  =       213.96637700
  PAW double counting   =      4796.69990483    -4807.98837810
  entropy T*S    EENTRO =         0.00000000
  eigenvalues    EBANDS =      -785.65081913
  atomic energy  EATOM  =      2425.98333211
  Solvation  Ediel_sol  =         0.00000000
  ---------------------------------------------------
  free energy    TOTEN  =      -129.07240427 eV

  energy without entropy =     -129.07240427  energy(sigma->0) =     -129.07240427


--------------------------------------------------------------------------------------------------------




----------------------------------------- Iteration    1(  10)  ---------------------------------------


    POTLOK:  cpu time   18.4922: real time   18.4773
    SETDIJ:  cpu time    0.0290: real time    0.0284
     EDDAV:  cpu time  280.3604: real time  280.1269
       DOS:  cpu time    0.0000: real time    0.0005
    CHARGE:  cpu time   16.4515: real time   16.4372
    MIXING:  cpu time    0.7799: real time    0.7801
    --------------------------------------------
      LOOP:  cpu time  316.1139: real time  315.8580

 eigenvalue-minimisations  :   446
 total energy-change (2. order) : 0.1191995E-01  (-0.2354213E-02)
 number of electron      58.0000006 magnetization 
 augmentation part        2.5887159 magnetization 

 Broyden mixing:
  rms(total) = 0.25789E-01    rms(broyden)= 0.25765E-01
  rms(prec ) = 0.35651E-01
  weight for this iteration     100.00

 eigenvalues of (default mixing * dielectric matrix)
  average eigenvalue GAMMA=   1.4903
  2.1649  2.1649  0.9893  0.9893  1.1434

 Free energy of the ion-electron system (eV)
  ---------------------------------------------------
  alpha Z        PSCENC =         0.51957394
  Ewald energy   TEWEN  =      6078.86633802
  -Hartree energ DENC   =     -8056.57820624
  -exchange      EXHF   =         0.00000000
  -V(xc)+E(xc)   XCENC  =       213.98692124
  PAW double counting   =      4790.86641101    -4802.10543567
  entropy T*S    EENTRO =         0.00000000
  eigenvalues    EBANDS =      -780.59941873
  atomic energy  EATOM  =      2425.98333211
  Solvation  Ediel_sol  =         0.00000000
  ---------------------------------------------------
  free energy    TOTEN  =      -129.06048432 eV

  energy without entropy =     -129.06048432  energy(sigma->0) =     -129.06048432


--------------------------------------------------------------------------------------------------------




----------------------------------------- Iteration    1(  11)  ---------------------------------------


    POTLOK:  cpu time   18.5042: real time   18.4892
    SETDIJ:  cpu time    0.0280: real time    0.0283
     EDDAV:  cpu time  284.6247: real time  284.3877
       DOS:  cpu time    0.0010: real time    0.0005
    CHARGE:  cpu time   16.5345: real time   16.5213
    MIXING:  cpu time    0.8139: real time    0.8131
    --------------------------------------------
      LOOP:  cpu time  320.5083: real time  320.2460

 eigenvalue-minimisations  :   454
 total energy-change (2. order) : 0.5741914E-02  (-0.7722551E-03)
 number of electron      58.0000006 magnetization 
 augmentation part        2.5846279 magnetization 

 Broyden mixing:
  rms(total) = 0.16071E-01    rms(broyden)= 0.16062E-01
  rms(prec ) = 0.24714E-01
  weight for this iteration     100.00

 eigenvalues of (default mixing * dielectric matrix)
  average eigenvalue GAMMA=   1.5462
  2.4782  2.4782  0.9413  0.9413  1.2192  1.2192

 Free energy of the ion-electron system (eV)
  ---------------------------------------------------
  alpha Z        PSCENC =         0.51957394
  Ewald energy   TEWEN  =      6078.86633802
  -Hartree energ DENC   =     -8062.45569169
  -exchange      EXHF   =         0.00000000
  -V(xc)+E(xc)   XCENC  =       214.09456995
  PAW double counting   =      4794.60286613    -4805.84047162
  entropy T*S    EENTRO =         0.00000000
  eigenvalues    EBANDS =      -774.82525926
  atomic energy  EATOM  =      2425.98333211
  Solvation  Ediel_sol  =         0.00000000
  ---------------------------------------------------
  free energy    TOTEN  =      -129.05474241 eV

  energy without entropy =     -129.05474241  energy(sigma->0) =     -129.05474241


--------------------------------------------------------------------------------------------------------




----------------------------------------- Iteration    1(  12)  ---------------------------------------


    POTLOK:  cpu time   18.5442: real time   18.5288
    SETDIJ:  cpu time    0.0280: real time    0.0285
     EDDAV:  cpu time  254.3813: real time  254.1720
       DOS:  cpu time    0.0000: real time    0.0005
    CHARGE:  cpu time   16.5595: real time   16.5460
    MIXING:  cpu time    0.8479: real time    0.8469
    --------------------------------------------
      LOOP:  cpu time  290.3629: real time  290.1258

 eigenvalue-minimisations  :   394
 total energy-change (2. order) : 0.4173359E-04  (-0.5308048E-03)
 number of electron      58.0000006 magnetization 
 augmentation part        2.5842830 magnetization 

 Broyden mixing:
  rms(total) = 0.97153E-02    rms(broyden)= 0.97113E-02
  rms(prec ) = 0.15895E-01
  weight for this iteration     100.00

 eigenvalues of (default mixing * dielectric matrix)
  average eigenvalue GAMMA=   1.5913
  2.7212  2.7212  1.2900  1.2390  1.2390  0.9645  0.9645

 Free energy of the ion-electron system (eV)
  ---------------------------------------------------
  alpha Z        PSCENC =         0.51957394
  Ewald energy   TEWEN  =      6078.86633802
  -Hartree energ DENC   =     -8068.90898357
  -exchange      EXHF   =         0.00000000
  -V(xc)+E(xc)   XCENC  =       214.17749291
  PAW double counting   =      4790.01507164    -4801.24220337
  entropy T*S    EENTRO =         0.00000000
  eigenvalues    EBANDS =      -768.46532235
  atomic energy  EATOM  =      2425.98333211
  Solvation  Ediel_sol  =         0.00000000
  ---------------------------------------------------
  free energy    TOTEN  =      -129.05470067 eV

  energy without entropy =     -129.05470067  energy(sigma->0) =     -129.05470067


--------------------------------------------------------------------------------------------------------




----------------------------------------- Iteration    1(  13)  ---------------------------------------


    POTLOK:  cpu time   18.6072: real time   18.5942
    SETDIJ:  cpu time    0.0290: real time    0.0284
     EDDAV:  cpu time  273.7794: real time  273.5533
       DOS:  cpu time    0.0010: real time    0.0005
    CHARGE:  cpu time   16.5265: real time   16.5137
    MIXING:  cpu time    0.8859: real time    0.8844
    --------------------------------------------
      LOOP:  cpu time  309.8309: real time  309.5777

 eigenvalue-minimisations  :   432
 total energy-change (2. order) :-0.6064323E-02  (-0.4059830E-03)
 number of electron      58.0000006 magnetization 
 augmentation part        2.5831252 magnetization 

 Broyden mixing:
  rms(total) = 0.58586E-02    rms(broyden)= 0.58528E-02
  rms(prec ) = 0.96323E-02
  weight for this iteration     100.00

 eigenvalues of (default mixing * dielectric matrix)
  average eigenvalue GAMMA=   1.7108
  4.1018  2.4878  1.5652  1.5317  1.0168  1.0168  0.9833  0.9833

 Free energy of the ion-electron system (eV)
  ---------------------------------------------------
  alpha Z        PSCENC =         0.51957394
  Ewald energy   TEWEN  =      6078.86633802
  -Hartree energ DENC   =     -8074.32105762
  -exchange      EXHF   =         0.00000000
  -V(xc)+E(xc)   XCENC  =       214.23959208
  PAW double counting   =      4783.71516112    -4794.94100445
  entropy T*S    EENTRO =         0.00000000
  eigenvalues    EBANDS =      -763.12270021
  atomic energy  EATOM  =      2425.98333211
  Solvation  Ediel_sol  =         0.00000000
  ---------------------------------------------------
  free energy    TOTEN  =      -129.06076500 eV

  energy without entropy =     -129.06076500  energy(sigma->0) =     -129.06076500


--------------------------------------------------------------------------------------------------------




----------------------------------------- Iteration    1(  14)  ---------------------------------------


    POTLOK:  cpu time   18.6782: real time   18.6628
    SETDIJ:  cpu time    0.0280: real time    0.0284
     EDDAV:  cpu time  268.6372: real time  268.4147
       DOS:  cpu time    0.0000: real time    0.0005
    CHARGE:  cpu time   16.6285: real time   16.6150
    MIXING:  cpu time    0.9599: real time    0.9592
    --------------------------------------------
      LOOP:  cpu time  304.9326: real time  304.6843

 eigenvalue-minimisations  :   422
 total energy-change (2. order) :-0.6809497E-02  (-0.1952818E-03)
 number of electron      58.0000006 magnetization 
 augmentation part        2.5822222 magnetization 

 Broyden mixing:
  rms(total) = 0.37338E-02    rms(broyden)= 0.37298E-02
  rms(prec ) = 0.57656E-02
  weight for this iteration     100.00

 eigenvalues of (default mixing * dielectric matrix)
  average eigenvalue GAMMA=   1.8229
  5.0441  2.4154  2.2556  1.3372  1.2094  1.2094  1.0023  0.9664  0.9664

 Free energy of the ion-electron system (eV)
  ---------------------------------------------------
  alpha Z        PSCENC =         0.51957394
  Ewald energy   TEWEN  =      6078.86633802
  -Hartree energ DENC   =     -8078.02852051
  -exchange      EXHF   =         0.00000000
  -V(xc)+E(xc)   XCENC  =       214.26830444
  PAW double counting   =      4778.94412103    -4790.16737470
  entropy T*S    EENTRO =         0.00000000
  eigenvalues    EBANDS =      -759.45334883
  atomic energy  EATOM  =      2425.98333211
  Solvation  Ediel_sol  =         0.00000000
  ---------------------------------------------------
  free energy    TOTEN  =      -129.06757449 eV

  energy without entropy =     -129.06757449  energy(sigma->0) =     -129.06757449


--------------------------------------------------------------------------------------------------------




----------------------------------------- Iteration    1(  15)  ---------------------------------------


    POTLOK:  cpu time   18.6182: real time   18.6033
    SETDIJ:  cpu time    0.0290: real time    0.0284
     EDDAV:  cpu time  254.2343: real time  254.0239
       DOS:  cpu time    0.0000: real time    0.0005
    CHARGE:  cpu time   16.5775: real time   16.5631
    MIXING:  cpu time    1.0638: real time    1.0629
    --------------------------------------------
      LOOP:  cpu time  290.5238: real time  290.2858

 eigenvalue-minimisations  :   394
 total energy-change (2. order) :-0.7689931E-02  (-0.8511277E-04)
 number of electron      58.0000006 magnetization 
 augmentation part        2.5821698 magnetization 

 Broyden mixing:
  rms(total) = 0.24307E-02    rms(broyden)= 0.24291E-02
  rms(prec ) = 0.35431E-02
  weight for this iteration     100.00

 eigenvalues of (default mixing * dielectric matrix)
  average eigenvalue GAMMA=   1.9109
  5.6381  2.8186  2.3176  1.7498  1.5255  0.9434  1.0170  1.0170  1.0409  1.0409

 Free energy of the ion-electron system (eV)
  ---------------------------------------------------
  alpha Z        PSCENC =         0.51957394
  Ewald energy   TEWEN  =      6078.86633802
  -Hartree energ DENC   =     -8079.72128703
  -exchange      EXHF   =         0.00000000
  -V(xc)+E(xc)   XCENC  =       214.26719113
  PAW double counting   =      4778.10906630    -4789.33096271
  entropy T*S    EENTRO =         0.00000000
  eigenvalues    EBANDS =      -757.76851619
  atomic energy  EATOM  =      2425.98333211
  Solvation  Ediel_sol  =         0.00000000
  ---------------------------------------------------
  free energy    TOTEN  =      -129.07526442 eV

  energy without entropy =     -129.07526442  energy(sigma->0) =     -129.07526442


--------------------------------------------------------------------------------------------------------




----------------------------------------- Iteration    1(  16)  ---------------------------------------


    POTLOK:  cpu time   18.5772: real time   18.5623
    SETDIJ:  cpu time    0.0280: real time    0.0284
     EDDAV:  cpu time  239.8745: real time  239.6745
       DOS:  cpu time    0.0000: real time    0.0005
    CHARGE:  cpu time   16.4675: real time   16.4541
    MIXING:  cpu time    1.0578: real time    1.0560
    --------------------------------------------
      LOOP:  cpu time  276.0060: real time  275.7793

 eigenvalue-minimisations  :   366
 total energy-change (2. order) :-0.5949584E-02  (-0.4735470E-04)
 number of electron      58.0000006 magnetization 
 augmentation part        2.5821350 magnetization 

 Broyden mixing:
  rms(total) = 0.13227E-02    rms(broyden)= 0.13222E-02
  rms(prec ) = 0.19686E-02
  weight for this iteration     100.00

 eigenvalues of (default mixing * dielectric matrix)
  average eigenvalue GAMMA=   1.9657
  6.3921  3.1687  2.3496  1.9802  1.3533  1.3533  0.9680  1.0118  1.0118  1.0168
  1.0168

 Free energy of the ion-electron system (eV)
  ---------------------------------------------------
  alpha Z        PSCENC =         0.51957394
  Ewald energy   TEWEN  =      6078.86633802
  -Hartree energ DENC   =     -8080.38704532
  -exchange      EXHF   =         0.00000000
  -V(xc)+E(xc)   XCENC  =       214.25787901
  PAW double counting   =      4777.86611395    -4789.08784314
  entropy T*S    EENTRO =         0.00000000
  eigenvalues    EBANDS =      -757.09956258
  atomic energy  EATOM  =      2425.98333211
  Solvation  Ediel_sol  =         0.00000000
  ---------------------------------------------------
  free energy    TOTEN  =      -129.08121401 eV

  energy without entropy =     -129.08121401  energy(sigma->0) =     -129.08121401


--------------------------------------------------------------------------------------------------------




----------------------------------------- Iteration    1(  17)  ---------------------------------------


    POTLOK:  cpu time   18.5942: real time   18.5796
    SETDIJ:  cpu time    0.0290: real time    0.0285
     EDDAV:  cpu time  224.7918: real time  224.6051
       DOS:  cpu time    0.0000: real time    0.0005
    CHARGE:  cpu time   16.5295: real time   16.5162
    MIXING:  cpu time    1.1618: real time    1.1607
    --------------------------------------------
      LOOP:  cpu time  261.1083: real time  260.8946

 eigenvalue-minimisations  :   334
 total energy-change (2. order) :-0.2556813E-02  (-0.1215225E-04)
 number of electron      58.0000006 magnetization 
 augmentation part        2.5820902 magnetization 

 Broyden mixing:
  rms(total) = 0.84702E-03    rms(broyden)= 0.84669E-03
  rms(prec ) = 0.12561E-02
  weight for this iteration     100.00

 eigenvalues of (default mixing * dielectric matrix)
  average eigenvalue GAMMA=   2.0449
  7.1088  3.6892  2.2913  2.2913  1.5396  1.5396  1.0488  1.0488  0.9809  0.9809
  1.0097  1.0097

 Free energy of the ion-electron system (eV)
  ---------------------------------------------------
  alpha Z        PSCENC =         0.51957394
  Ewald energy   TEWEN  =      6078.86633802
  -Hartree energ DENC   =     -8080.68724957
  -exchange      EXHF   =         0.00000000
  -V(xc)+E(xc)   XCENC  =       214.25390821
  PAW double counting   =      4778.11411740    -4789.33557818
  entropy T*S    EENTRO =         0.00000000
  eigenvalues    EBANDS =      -756.79821276
  atomic energy  EATOM  =      2425.98333211
  Solvation  Ediel_sol  =         0.00000000
  ---------------------------------------------------
  free energy    TOTEN  =      -129.08377082 eV

  energy without entropy =     -129.08377082  energy(sigma->0) =     -129.08377082


--------------------------------------------------------------------------------------------------------




----------------------------------------- Iteration    1(  18)  ---------------------------------------


    POTLOK:  cpu time   18.5912: real time   18.5763
    SETDIJ:  cpu time    0.0280: real time    0.0284
     EDDAV:  cpu time  215.1333: real time  214.9546
       DOS:  cpu time    0.0010: real time    0.0005
    CHARGE:  cpu time   16.4505: real time   16.4359
    MIXING:  cpu time    1.1958: real time    1.1957
    --------------------------------------------
      LOOP:  cpu time  251.4008: real time  251.1945

 eigenvalue-minimisations  :   316
 total energy-change (2. order) :-0.1837355E-02  (-0.1280995E-04)
 number of electron      58.0000006 magnetization 
 augmentation part        2.5820919 magnetization 

 Broyden mixing:
  rms(total) = 0.52878E-03    rms(broyden)= 0.52861E-03
  rms(prec ) = 0.74458E-03
  weight for this iteration     100.00

 eigenvalues of (default mixing * dielectric matrix)
  average eigenvalue GAMMA=   2.1064
  7.6046  4.2687  2.4890  2.3343  1.8153  1.4433  1.4433  1.0587  1.0587  0.9860
  0.9860  0.9478  0.9478

 Free energy of the ion-electron system (eV)
  ---------------------------------------------------
  alpha Z        PSCENC =         0.51957394
  Ewald energy   TEWEN  =      6078.86633802
  -Hartree energ DENC   =     -8080.85223707
  -exchange      EXHF   =         0.00000000
  -V(xc)+E(xc)   XCENC  =       214.25049732
  PAW double counting   =      4778.29839426    -4789.51976344
  entropy T*S    EENTRO =         0.00000000
  eigenvalues    EBANDS =      -756.63174332
  atomic energy  EATOM  =      2425.98333211
  Solvation  Ediel_sol  =         0.00000000
  ---------------------------------------------------
  free energy    TOTEN  =      -129.08560817 eV

  energy without entropy =     -129.08560817  energy(sigma->0) =     -129.08560817


--------------------------------------------------------------------------------------------------------




----------------------------------------- Iteration    1(  19)  ---------------------------------------


    POTLOK:  cpu time   18.5292: real time   18.5152
    SETDIJ:  cpu time    0.0280: real time    0.0284
     EDDAV:  cpu time  237.0940: real time  236.8972
       DOS:  cpu time    0.0000: real time    0.0005
    CHARGE:  cpu time   16.4745: real time   16.4606
    MIXING:  cpu time    1.2608: real time    1.2603
    --------------------------------------------
      LOOP:  cpu time  273.3894: real time  273.1659

 eigenvalue-minimisations  :   358
 total energy-change (2. order) :-0.8924451E-03  (-0.5247452E-05)
 number of electron      58.0000006 magnetization 
 augmentation part        2.5820393 magnetization 

 Broyden mixing:
  rms(total) = 0.31390E-03    rms(broyden)= 0.31372E-03
  rms(prec ) = 0.43620E-03
  weight for this iteration     100.00

 eigenvalues of (default mixing * dielectric matrix)
  average eigenvalue GAMMA=   2.1435
  8.1210  4.7104  2.6270  2.6270  1.6327  1.6327  1.5417  1.0632  1.0632  0.9870
  0.9870  0.9291  1.0435  1.0435

 Free energy of the ion-electron system (eV)
  ---------------------------------------------------
  alpha Z        PSCENC =         0.51957394
  Ewald energy   TEWEN  =      6078.86633802
  -Hartree energ DENC   =     -8080.94168148
  -exchange      EXHF   =         0.00000000
  -V(xc)+E(xc)   XCENC  =       214.25034503
  PAW double counting   =      4778.54290105    -4789.76450154
  entropy T*S    EENTRO =         0.00000000
  eigenvalues    EBANDS =      -756.54280775
  atomic energy  EATOM  =      2425.98333211
  Solvation  Ediel_sol  =         0.00000000
  ---------------------------------------------------
  free energy    TOTEN  =      -129.08650062 eV

  energy without entropy =     -129.08650062  energy(sigma->0) =     -129.08650062


--------------------------------------------------------------------------------------------------------




----------------------------------------- Iteration    1(  20)  ---------------------------------------


    POTLOK:  cpu time   18.4872: real time   18.4728
    SETDIJ:  cpu time    0.0290: real time    0.0285
     EDDAV:  cpu time  241.6403: real time  241.4400
       DOS:  cpu time    0.0000: real time    0.0005
    CHARGE:  cpu time   16.4605: real time   16.4473
    MIXING:  cpu time    1.3008: real time    1.2999
    --------------------------------------------
      LOOP:  cpu time  277.9207: real time  277.6926

 eigenvalue-minimisations  :   366
 total energy-change (2. order) :-0.3767586E-03  (-0.1491013E-05)
 number of electron      58.0000006 magnetization 
 augmentation part        2.5820493 magnetization 

 Broyden mixing:
  rms(total) = 0.19459E-03    rms(broyden)= 0.19446E-03
  rms(prec ) = 0.26879E-03
  weight for this iteration     100.00

 eigenvalues of (default mixing * dielectric matrix)
  average eigenvalue GAMMA=   2.1470
  8.2986  5.1841  2.8414  2.5002  1.8930  1.7596  1.2915  1.2915  0.9452  1.0707
  1.0707  1.0385  1.0385  0.9912  0.9912

 Free energy of the ion-electron system (eV)
  ---------------------------------------------------
  alpha Z        PSCENC =         0.51957394
  Ewald energy   TEWEN  =      6078.86633802
  -Hartree energ DENC   =     -8080.95653732
  -exchange      EXHF   =         0.00000000
  -V(xc)+E(xc)   XCENC  =       214.24899638
  PAW double counting   =      4778.23357304    -4789.45501654
  entropy T*S    EENTRO =         0.00000000
  eigenvalues    EBANDS =      -756.52713701
  atomic energy  EATOM  =      2425.98333211
  Solvation  Ediel_sol  =         0.00000000
  ---------------------------------------------------
  free energy    TOTEN  =      -129.08687738 eV

  energy without entropy =     -129.08687738  energy(sigma->0) =     -129.08687738


--------------------------------------------------------------------------------------------------------




----------------------------------------- Iteration    1(  21)  ---------------------------------------


    POTLOK:  cpu time   18.5052: real time   18.4901
    SETDIJ:  cpu time    0.0290: real time    0.0285
     EDDAV:  cpu time  209.5062: real time  209.3321
       DOS:  cpu time    0.0000: real time    0.0005
    CHARGE:  cpu time   16.4885: real time   16.4752
    MIXING:  cpu time    1.3818: real time    1.3805
    --------------------------------------------
      LOOP:  cpu time  245.9116: real time  245.7107

 eigenvalue-minimisations  :   304
 total energy-change (2. order) :-0.1864252E-03  (-0.6888026E-06)
 number of electron      58.0000006 magnetization 
 augmentation part        2.5820341 magnetization 

 Broyden mixing:
  rms(total) = 0.12176E-03    rms(broyden)= 0.12170E-03
  rms(prec ) = 0.17089E-03
  weight for this iteration     100.00

 eigenvalues of (default mixing * dielectric matrix)
  average eigenvalue GAMMA=   2.2140
  8.4941  5.7303  3.3904  2.6080  2.3377  1.6347  1.6347  1.4180  1.0996  1.0996
  1.0555  1.0555  0.9896  0.9896  0.9836  0.9036

 Free energy of the ion-electron system (eV)
  ---------------------------------------------------
  alpha Z        PSCENC =         0.51957394
  Ewald energy   TEWEN  =      6078.86633802
  -Hartree energ DENC   =     -8080.96413406
  -exchange      EXHF   =         0.00000000
  -V(xc)+E(xc)   XCENC  =       214.24882586
  PAW double counting   =      4778.34573329    -4789.56719408
  entropy T*S    EENTRO =         0.00000000
  eigenvalues    EBANDS =      -756.51953889
  atomic energy  EATOM  =      2425.98333211
  Solvation  Ediel_sol  =         0.00000000
  ---------------------------------------------------
  free energy    TOTEN  =      -129.08706380 eV

  energy without entropy =     -129.08706380  energy(sigma->0) =     -129.08706380


--------------------------------------------------------------------------------------------------------




----------------------------------------- Iteration    1(  22)  ---------------------------------------


    POTLOK:  cpu time   18.5042: real time   18.4888
    SETDIJ:  cpu time    0.0280: real time    0.0286
     EDDAV:  cpu time  212.6127: real time  212.4354
       DOS:  cpu time    0.0000: real time    0.0005
    CHARGE:  cpu time   16.4875: real time   16.4734
    MIXING:  cpu time    1.4978: real time    1.4965
    --------------------------------------------
      LOOP:  cpu time  249.1311: real time  248.9258

 eigenvalue-minimisations  :   310
 total energy-change (2. order) :-0.1432886E-03  (-0.3549097E-06)
 number of electron      58.0000006 magnetization 
 augmentation part        2.5820384 magnetization 

 Broyden mixing:
  rms(total) = 0.87205E-04    rms(broyden)= 0.87155E-04
  rms(prec ) = 0.10764E-03
  weight for this iteration     100.00

 eigenvalues of (default mixing * dielectric matrix)
  average eigenvalue GAMMA=   2.2079
  8.5454  6.1303  3.6102  2.5085  2.5085  1.7236  1.7236  1.2733  1.2733  1.0461
  1.0461  1.1493  1.1493  0.9782  0.9782  0.9451  0.9451

 Free energy of the ion-electron system (eV)
  ---------------------------------------------------
  alpha Z        PSCENC =         0.51957394
  Ewald energy   TEWEN  =      6078.86633802
  -Hartree energ DENC   =     -8080.97964989
  -exchange      EXHF   =         0.00000000
  -V(xc)+E(xc)   XCENC  =       214.24859264
  PAW double counting   =      4778.25206590    -4789.47353281
  entropy T*S    EENTRO =         0.00000000
  eigenvalues    EBANDS =      -756.50392702
  atomic energy  EATOM  =      2425.98333211
  Solvation  Ediel_sol  =         0.00000000
  ---------------------------------------------------
  free energy    TOTEN  =      -129.08720709 eV

  energy without entropy =     -129.08720709  energy(sigma->0) =     -129.08720709


--------------------------------------------------------------------------------------------------------




----------------------------------------- Iteration    1(  23)  ---------------------------------------


    POTLOK:  cpu time   18.5252: real time   18.5105
    SETDIJ:  cpu time    0.0290: real time    0.0284
     EDDAV:  cpu time  241.0644: real time  240.8637
       DOS:  cpu time    0.0010: real time    0.0005
    --------------------------------------------
      LOOP:  cpu time  259.6205: real time  259.4065

 eigenvalue-minimisations  :   368
 total energy-change (2. order) :-0.3934306E-04  (-0.8320907E-07)
 number of electron      58.0000006 magnetization 
 augmentation part        2.5820384 magnetization 

 Free energy of the ion-electron system (eV)
  ---------------------------------------------------
  alpha Z        PSCENC =         0.51957394
  Ewald energy   TEWEN  =      6078.86633802
  -Hartree energ DENC   =     -8080.98744780
  -exchange      EXHF   =         0.00000000
  -V(xc)+E(xc)   XCENC  =       214.24856510
  PAW double counting   =      4778.27690038    -4789.49836739
  entropy T*S    EENTRO =         0.00000000
  eigenvalues    EBANDS =      -756.49614079
  atomic energy  EATOM  =      2425.98333211
  Solvation  Ediel_sol  =         0.00000000
  ---------------------------------------------------
  free energy    TOTEN  =      -129.08724644 eV

  energy without entropy =     -129.08724644  energy(sigma->0) =     -129.08724644


--------------------------------------------------------------------------------------------------------




 average (electrostatic) potential at core
  the test charge radii are     0.5201  0.6991  0.7089  0.7215
  (the norm of the test charge is              1.0000)
       1 -42.3792       2 -42.6936       3 -42.6238       4 -44.7497       5 -42.3799
       6 -41.7285       7 -42.0161       8 -42.1131       9 -43.0119      10 -41.6149
      11 -41.7245      12 -41.8120      13 -59.1672      14 -61.6342      15 -60.1240
      16 -58.6768      17 -60.7972      18 -58.9921      19 -74.7746      20 -73.7362
      21 -80.1854      22 -79.2041
 
 
 
 E-fermi :  -4.5407     XC(G=0):  -0.1516     alpha+bet : -0.0465


 k-point     1 :       0.2500    0.2500    0.2500
  band No.  band energies     occupation 
      1     -26.3599      2.00000
      2     -25.5213      2.00000
      3     -23.5859      2.00000
      4     -22.5633      2.00000
      5     -19.7081      2.00000
      6     -18.2744      2.00000
      7     -17.3803      2.00000
      8     -15.8762      2.00000
      9     -15.0082      2.00000
     10     -13.9187      2.00000
     11     -12.8702      2.00000
     12     -12.6510      2.00000
     13     -12.0132      2.00000
     14     -11.3897      2.00000
     15     -11.2229      2.00000
     16     -10.5755      2.00000
     17     -10.3149      2.00000
     18     -10.1866      2.00000
     19     -10.0104      2.00000
     20      -9.7397      2.00000
     21      -9.3514      2.00000
     22      -9.1928      2.00000
     23      -8.9391      2.00000
     24      -8.9005      2.00000
     25      -8.4502      2.00000
     26      -6.6984      2.00000
     27      -6.3618      2.00000
     28      -5.6582      2.00000
     29      -5.5252      2.00000
     30      -1.2958      0.00000
     31      -1.0310      0.00000
     32      -0.5627      0.00000
     33      -0.2074      0.00000
     34      -0.1700      0.00000
     35      -0.0587      0.00000
     36       0.0091      0.00000
     37       0.0862      0.00000
     38       0.1050      0.00000
     39       0.1108      0.00000
     40       0.1545      0.00000
     41       0.1770      0.00000

 k-point     2 :      -0.2500    0.2500    0.2500
  band No.  band energies     occupation 
      1     -26.3599      2.00000
      2     -25.5213      2.00000
      3     -23.5859      2.00000
      4     -22.5633      2.00000
      5     -19.7081      2.00000
      6     -18.2744      2.00000
      7     -17.3803      2.00000
      8     -15.8762      2.00000
      9     -15.0082      2.00000
     10     -13.9187      2.00000
     11     -12.8702      2.00000
     12     -12.6510      2.00000
     13     -12.0132      2.00000
     14     -11.3897      2.00000
     15     -11.2229      2.00000
     16     -10.5756      2.00000
     17     -10.3149      2.00000
     18     -10.1866      2.00000
     19     -10.0104      2.00000
     20      -9.7397      2.00000
     21      -9.3514      2.00000
     22      -9.1928      2.00000
     23      -8.9391      2.00000
     24      -8.9005      2.00000
     25      -8.4502      2.00000
     26      -6.6984      2.00000
     27      -6.3618      2.00000
     28      -5.6582      2.00000
     29      -5.5251      2.00000
     30      -1.2958      0.00000
     31      -1.0310      0.00000
     32      -0.5627      0.00000
     33      -0.2074      0.00000
     34      -0.1701      0.00000
     35      -0.0573      0.00000
     36       0.0080      0.00000
     37       0.0789      0.00000
     38       0.0990      0.00000
     39       0.1197      0.00000
     40       0.1662      0.00000
     41       0.1724      0.00000

 k-point     3 :       0.2500   -0.2500    0.2500
  band No.  band energies     occupation 
      1     -26.3599      2.00000
      2     -25.5213      2.00000
      3     -23.5859      2.00000
      4     -22.5633      2.00000
      5     -19.7081      2.00000
      6     -18.2744      2.00000
      7     -17.3803      2.00000
      8     -15.8762      2.00000
      9     -15.0082      2.00000
[...]
 augmentation part        2.5797703 magnetization 

 Free energy of the ion-electron system (eV)
  ---------------------------------------------------
  alpha Z        PSCENC =         0.51957394
  Ewald energy   TEWEN  =      6055.26851075
  -Hartree energ DENC   =     -8057.59698984
  -exchange      EXHF   =         0.00000000
  -V(xc)+E(xc)   XCENC  =       214.13129897
  PAW double counting   =      4771.23833507    -4782.44984568
  entropy T*S    EENTRO =         0.00000000
  eigenvalues    EBANDS =      -756.38124675
  atomic energy  EATOM  =      2425.98333211
  Solvation  Ediel_sol  =         0.00000000
  ---------------------------------------------------
  free energy    TOTEN  =      -129.28703144 eV

  energy without entropy =     -129.28703144  energy(sigma->0) =     -129.28703144


--------------------------------------------------------------------------------------------------------




 average (electrostatic) potential at core
  the test charge radii are     0.5201  0.6991  0.7089  0.7215
  (the norm of the test charge is              1.0000)
       1 -42.3486       2 -42.6263       3 -42.5971       4 -44.7272       5 -42.3287
       6 -41.7858       7 -42.0030       8 -42.1451       9 -43.2962      10 -41.6592
      11 -41.7843      12 -41.8509      13 -59.1312      14 -61.5580      15 -60.0993
      16 -58.7107      17 -60.8402      18 -59.0331      19 -74.7615      20 -73.8887
      21 -80.0556      22 -79.2496
 
 
 
 E-fermi :  -4.6050     XC(G=0):  -0.1302     alpha+bet : -0.0465


 k-point     1 :       0.2500    0.2500    0.2500
  band No.  band energies     occupation 
      1     -26.2617      2.00000
      2     -25.5616      2.00000
      3     -23.5212      2.00000
      4     -22.6386      2.00000
      5     -19.6775      2.00000
      6     -18.2509      2.00000
      7     -17.4315      2.00000
      8     -15.8645      2.00000
      9     -14.9794      2.00000
     10     -13.9696      2.00000
     11     -12.9064      2.00000
     12     -12.5962      2.00000
     13     -11.9816      2.00000
     14     -11.3632      2.00000
     15     -11.1984      2.00000
     16     -10.5886      2.00000
     17     -10.3061      2.00000
     18     -10.1155      2.00000
     19     -10.0053      2.00000
     20      -9.7066      2.00000
     21      -9.4200      2.00000
     22      -9.1997      2.00000
     23      -8.9967      2.00000
     24      -8.8451      2.00000
     25      -8.4632      2.00000
     26      -6.6980      2.00000
     27      -6.3079      2.00000
     28      -5.7682      2.00000
     29      -5.5673      2.00000
     30      -1.2106      0.00000
     31      -0.9682      0.00000
     32      -0.4869      0.00000
     33      -0.2210      0.00000
     34      -0.1612      0.00000
     35      -0.0492      0.00000
     36       0.0324      0.00000
     37       0.1094      0.00000
     38       0.1323      0.00000
     39       0.1334      0.00000
     40       0.1741      0.00000
     41       0.1944      0.00000

 k-point     2 :      -0.2500    0.2500    0.2500
  band No.  band energies     occupation 
      1     -26.2617      2.00000
      2     -25.5616      2.00000
      3     -23.5212      2.00000
      4     -22.6386      2.00000
      5     -19.6775      2.00000
      6     -18.2509      2.00000
      7     -17.4315      2.00000
      8     -15.8645      2.00000
      9     -14.9794      2.00000
     10     -13.9696      2.00000
     11     -12.9064      2.00000
     12     -12.5962      2.00000
     13     -11.9816      2.00000
     14     -11.3632      2.00000
     15     -11.1984      2.00000
     16     -10.5886      2.00000
     17     -10.3061      2.00000
     18     -10.1155      2.00000
     19     -10.0053      2.00000
     20      -9.7066      2.00000
     21      -9.4200      2.00000
     22      -9.1997      2.00000
     23      -8.9967      2.00000
     24      -8.8451      2.00000
     25      -8.4632      2.00000
     26      -6.6980      2.00000
     27      -6.3079      2.00000
     28      -5.7682      2.00000
     29      -5.5673      2.00000
     30      -1.2107      0.00000
     31      -0.9682      0.00000
     32      -0.4869      0.00000
     33      -0.2210      0.00000
     34      -0.1614      0.00000
     35      -0.0487      0.00000
     36       0.0337      0.00000
     37       0.0993      0.00000
     38       0.1256      0.00000
     39       0.1415      0.00000
     40       0.1859      0.00000
     41       0.1965      0.00000

 k-point     3 :       0.2500   -0.2500    0.2500
  band No.  band energies     occupation 
      1     -26.2617      2.00000
      2     -25.5616      2.00000
      3     -23.5212      2.00000
      4     -22.6386      2.00000
      5     -19.6775      2.00000
      6     -18.2509      2.00000
      7     -17.4315      2.00000
      8     -15.8645      2.00000
      9     -14.9794      2.00000
     10     -13.9696      2.00000
     11     -12.9064      2.00000
     12     -12.5962      2.00000
     13     -11.9816      2.00000
     14     -11.3632      2.00000
     15     -11.1984      2.00000
     16     -10.5886      2.00000
     17     -10.3061      2.00000
     18     -10.1155      2.00000
     19     -10.0053      2.00000
     20      -9.7066      2.00000
     21      -9.4200      2.00000
     22      -9.1997      2.00000
     23      -8.9967      2.00000
     24      -8.8451      2.00000
     25      -8.4632      2.00000
     26      -6.6980      2.00000
     27      -6.3079      2.00000
     28      -5.7682      2.00000
     29      -5.5673      2.00000
     30      -1.2107      0.00000
     31      -0.9682      0.00000
     32      -0.4869      0.00000
     33      -0.2210      0.00000
     34      -0.1612      0.00000
     35      -0.0499      0.00000
     36       0.0358      0.00000
     37       0.1018      0.00000
     38       0.1228      0.00000
     39       0.1418      0.00000
     40       0.1832      0.00000
     41       0.1939      0.00000

 k-point     4 :      -0.2500   -0.2500    0.2500
  band No.  band energies     occupation 
      1     -26.2617      2.00000
      2     -25.5616      2.00000
      3     -23.5212      2.00000
      4     -22.6386      2.00000
      5     -19.6775      2.00000
      6     -18.2509      2.00000
      7     -17.4315      2.00000
      8     -15.8645      2.00000
      9     -14.9794      2.00000
     10     -13.9696      2.00000
     11     -12.9064      2.00000
     12     -12.5962      2.00000
     13     -11.9816      2.00000
     14     -11.3632      2.00000
     15     -11.1984      2.00000
     16     -10.5886      2.00000
     17     -10.3061      2.00000
     18     -10.1155      2.00000
     19     -10.0053      2.00000
     20      -9.7066      2.00000
     21      -9.4200      2.00000
     22      -9.1997      2.00000
     23      -8.9967      2.00000
     24      -8.8451      2.00000
     25      -8.4632      2.00000
     26      -6.6980      2.00000
     27      -6.3079      2.00000
     28      -5.7682      2.00000
     29      -5.5673      2.00000
     30      -1.2107      0.00000
     31      -0.9682      0.00000
     32      -0.4869      0.00000
     33      -0.2210      0.00000
     34      -0.1612      0.00000
     35      -0.0489      0.00000
     36       0.0321      0.00000
     37       0.1064      0.00000
     38       0.1332      0.00000
     39       0.1367      0.00000
     40       0.1713      0.00000
     41       0.1922      0.00000


--------------------------------------------------------------------------------------------------------


 soft charge-density along one line, spin component           1
         0         1         2         3         4         5         6         7         8         9
 total charge-density along one line
 
 pseudopotential strength for first ion, spin component:           1
 -2.353  -4.056   0.002   0.000  -0.001
 -4.056  -6.907   0.005   0.000  -0.003
  0.002   0.005  -0.332   0.000  -0.002
  0.000   0.000   0.000  -0.336   0.000
 -0.001  -0.003  -0.002   0.000  -0.335
 total augmentation occupancy for first ion, spin component:           1
  3.534  -0.637  -0.397   0.006   0.197
 -0.637   0.129   0.073  -0.001  -0.036
 -0.397   0.073   0.047  -0.001  -0.019
  0.006  -0.001  -0.001   0.009   0.000
  0.197  -0.036  -0.019   0.000   0.017


------------------------ aborting loop because EDIFF is reached ----------------------------------------


    CHARGE:  cpu time   16.3695: real time   16.3549
    FORLOC:  cpu time    5.7861: real time    5.7823
    FORNL :  cpu time   59.6629: real time   59.6129
    STRESS:  cpu time  179.6617: real time  179.5100
    FORCOR:  cpu time   23.4204: real time   23.4010
    FORHAR:  cpu time   10.4064: real time   10.3975
    MIXING:  cpu time    0.7459: real time    0.7457
    OFIELD:  cpu time    0.0000: real time    0.0000

  FORCE on cell =-STRESS in cart. coord.  units (eV):
  Direction    XX          YY          ZZ          XY          YZ          ZX
  --------------------------------------------------------------------------------------
  Alpha Z     0.51957     0.51957     0.51957
  Ewald    3452.21402  2577.41346    25.63987    -9.16303   216.62162   135.48604
  Hartree  3852.12490  3044.61945  1160.85419     8.31804   146.64999    66.13836
  E(xc)    -229.26747  -229.52639  -232.32758    -0.17873     0.31530     0.35051
  Local   -7896.52576 -6211.77301 -1828.04741    -5.66971  -354.61573  -191.98665
  n-local  -133.73056  -133.66013  -131.88653     0.62327    -0.50685    -0.59355
  augment    14.40330    14.33055    14.69996     0.08917    -0.35001    -0.27032
  Kinetic   936.64900   934.86127   986.68112     5.85147    -8.04775    -9.11183
  Fock        0.00000     0.00000     0.00000     0.00000     0.00000     0.00000
  -------------------------------------------------------------------------------------
  Total      -3.61301    -3.21523    -3.86681    -0.12953     0.06657     0.01256
  in kB      -0.21440    -0.19079    -0.22946    -0.00769     0.00395     0.00075
  external pressure =       -0.21 kB  Pullay stress =        0.00 kB


 VOLUME and BASIS-vectors are now :
 -----------------------------------------------------------------------------
  energy-cutoff  :      400.00
  volume of cell :    27000.00
      direct lattice vectors                 reciprocal lattice vectors
    30.000000000  0.000000000  0.000000000     0.033333333  0.000000000  0.000000000
     0.000000000 30.000000000  0.000000000     0.000000000  0.033333333  0.000000000
     0.000000000  0.000000000 30.000000000     0.000000000  0.000000000  0.033333333

  length of vectors
    30.000000000 30.000000000 30.000000000     0.033333333  0.033333333  0.033333333


 FORCES acting on ions
    electron-ion (+dipol)            ewald-force                    non-local-force                 convergence-correction
 -----------------------------------------------------------------------------------------------
   0.642E+02 -.573E+02 0.793E+01   -.668E+02 0.624E+02 -.802E+01   0.253E+01 -.508E+01 0.807E-01   0.181E-04 0.775E-04 -.101E-03
   0.458E+02 0.269E+02 0.651E+02   -.466E+02 -.293E+02 -.700E+02   0.789E+00 0.242E+01 0.486E+01   -.275E-04 0.754E-04 -.617E-04
   0.646E+02 0.364E+02 -.427E+02   -.671E+02 -.394E+02 0.465E+02   0.248E+01 0.304E+01 -.382E+01   -.401E-04 0.302E-04 -.996E-04
   0.609E+02 0.840E+02 0.431E+02   -.645E+02 -.897E+02 -.461E+02   0.367E+01 0.570E+01 0.297E+01   -.298E-04 -.278E-04 -.121E-03
   0.444E+01 0.404E+02 -.923E+02   -.465E+01 -.418E+02 0.977E+02   0.210E+00 0.137E+01 -.540E+01   0.917E-04 -.129E-04 0.212E-04
   -.621E+02 0.638E+02 -.279E+01   0.675E+02 -.655E+02 0.419E+01   -.534E+01 0.162E+01 -.136E+01   0.278E-04 0.217E-05 -.122E-03
   -.705E+01 0.244E+02 0.845E+02   0.707E+01 -.232E+02 -.898E+02   -.337E-02 -.120E+01 0.535E+01   0.478E-04 -.406E-04 0.981E-05
   0.326E+02 0.839E+02 -.136E+01   -.360E+02 -.881E+02 0.227E+01   0.339E+01 0.417E+01 -.889E+00   0.809E-04 -.288E-04 -.120E-03
   0.421E+02 -.644E+02 -.100E+01   -.487E+02 0.668E+02 0.206E+01   0.659E+01 -.236E+01 -.108E+01   -.118E-03 0.190E-03 -.530E-04
   -.861E+02 -.792E+01 -.413E+01   0.910E+02 0.519E+01 0.521E+01   -.495E+01 0.276E+01 -.107E+01   0.399E-04 0.942E-04 0.134E-03
   -.221E+02 -.471E+02 0.700E+02   0.222E+02 0.489E+02 -.753E+02   -.675E-01 -.178E+01 0.523E+01   -.321E-04 0.155E-03 0.626E-06
   -.174E+02 -.779E+02 -.356E+02   0.170E+02 0.823E+02 0.390E+02   0.373E+00 -.442E+01 -.337E+01   0.515E-04 0.255E-04 0.653E-06
   0.222E+03 0.281E+01 0.386E+02   -.222E+03 -.177E+01 -.388E+02   0.820E+00 -.103E+01 0.202E+00   -.185E-03 0.393E-03 -.477E-03
   0.171E+03 0.817E+01 0.192E+02   -.176E+03 -.831E+01 -.200E+02   0.489E+01 0.135E+00 0.819E+00   0.403E-04 0.900E-03 0.511E-04
   -.495E+01 0.115E+03 -.882E+02   0.986E+01 -.117E+03 0.900E+02   -.491E+01 0.133E+01 -.177E+01   0.548E-03 0.118E-03 -.518E-03
   -.359E+02 0.220E+03 0.795E+02   0.374E+02 -.221E+03 -.797E+02   -.150E+01 0.895E+00 0.290E+00   0.394E-03 -.142E-03 -.853E-03
   -.163E+02 0.143E+02 -.246E+02   0.133E+02 -.162E+02 0.250E+02   0.291E+01 0.194E+01 -.472E+00   0.468E-03 0.172E-03 -.365E-03
   -.150E+03 -.188E+03 0.432E+02   0.154E+03 0.191E+03 -.438E+02   -.458E+01 -.293E+01 0.595E+00   0.218E-03 0.919E-03 0.112E-02
   0.108E+03 0.139E+03 0.703E+02   -.103E+03 -.137E+03 -.738E+02   -.463E+01 -.188E+01 0.349E+01   -.126E-03 0.213E-03 -.103E-02
   -.155E+02 -.191E+03 0.556E+02   0.122E+02 0.193E+03 -.606E+02   0.332E+01 -.254E+01 0.497E+01   0.359E-03 0.123E-03 -.352E-03
   0.771E+02 -.355E+03 -.173E+03   -.635E+02 0.400E+03 0.194E+03   -.135E+02 -.455E+02 -.211E+02   -.259E-03 -.169E-03 0.174E-02
   -.419E+03 0.152E+03 -.922E+02   0.467E+03 -.172E+03 0.101E+03   -.482E+02 0.205E+02 -.836E+01   0.125E-02 0.169E-03 -.387E-03
 -----------------------------------------------------------------------------------------------
   0.558E+02 0.229E+02 0.198E+02   0.114E-12 0.568E-13 -.284E-13   -.558E+02 -.229E+02 -.198E+02   0.282E-02 0.324E-02 -.159E-02
 
 
 POSITION                                       TOTAL-FORCE (eV/Angst)
 -----------------------------------------------------------------------------------
     11.25414     16.24112     14.88589         0.011906      0.013212     -0.010227
     11.60579     14.76304     13.93546         0.008729      0.005666      0.003597
     11.25791     14.64232     15.67534        -0.014813      0.017757     -0.000326
     13.47581     13.57097     14.58994         0.008723      0.012603     -0.041666
     15.28022     13.68622     16.51860         0.002172      0.024986     -0.004383
     16.71383     12.38639     14.89473        -0.009510     -0.031052      0.035359
     15.68748     12.96204     13.55800         0.013722     -0.042851      0.007863
     14.99526     11.89003     14.81436        -0.015017     -0.007430      0.017231
     15.32408     16.57016     15.16758        -0.004516     -0.005619     -0.020552
     18.32034     16.64767     15.01389        -0.003998      0.021013      0.009358
     17.37849     17.52212     13.76872         0.012005      0.040396      0.008960
     17.28683     18.03618     15.47827        -0.023590     -0.008526      0.023943
     11.74431     15.26231     14.90604         0.002471      0.008063      0.003174
     13.21039     15.44402     15.25853        -0.000593     -0.009317      0.019152
     15.33466     13.95696     15.44770         0.001932     -0.001763     -0.013206
     15.70293     12.71273     14.63064        -0.001420     -0.021501      0.016361
     16.53176     14.93878     15.33888        -0.066392      0.039464     -0.046363
     17.37458     17.16607     14.81119        -0.011592      0.013568      0.000494
     13.98628     14.35456     14.99147         0.010633      0.005921     -0.016377
     16.28672     16.22881     15.02091         0.012250     -0.023823     -0.034156
     13.63504     16.50472     15.74640         0.001029     -0.026335      0.068638
     17.66233     14.46729     15.52615         0.065870     -0.024431     -0.026877
 -----------------------------------------------------------------------------------
    total drift:                               -0.008596     -0.019357      0.019811


--------------------------------------------------------------------------------------------------------



  FREE ENERGIE OF THE ION-ELECTRON SYSTEM (eV)
  ---------------------------------------------------
  free  energy   TOTEN  =      -129.28703144 eV

  energy  without entropy=     -129.28703144  energy(sigma->0) =     -129.28703144
 
 d Force = 0.7940903E-03[ 0.770E-03, 0.818E-03]  d Energy = 0.8001257E-03-0.604E-05
 d Force = 0.3857446E+00[ 0.388E+00, 0.383E+00]  d Ewald  = 0.3857446E+00-0.656E-07


--------------------------------------------------------------------------------------------------------


    POTLOK:  cpu time   20.1179: real time   20.1320


--------------------------------------------------------------------------------------------------------


 NEB: the previous image is higher in energy: F
 NEB: the next image is higher in energy    : T
 NEB: only next energy greater

 NEB: Tangent
 ----------------------------------------------
     -0.04420     -0.06211     -0.02337
     -0.04556     -0.06190     -0.01796
     -0.00811     -0.05624     -0.01032
     -0.05473     -0.07758      0.13737
      0.03253     -0.21359     -0.11688
      0.06585      0.12672     -0.28735
      0.04109      0.29399     -0.18751
      0.09114      0.08209     -0.38422
     -0.00997     -0.01754     -0.02174
     -0.00453     -0.00396      0.28039
      0.09020      0.05230      0.25254
     -0.04550     -0.03115      0.26209
     -0.03103     -0.05541     -0.02326
     -0.02225     -0.02167     -0.07107
      0.00347     -0.03803     -0.05340
      0.05511      0.12869     -0.24347
     -0.02481     -0.00629      0.11786
      0.01160      0.00223      0.22988
     -0.03271     -0.04940      0.04044
      0.00516     -0.00884      0.09575
     -0.02284      0.03137     -0.21248
     -0.05134     -0.00689      0.23653

 NEB: forces: par spring, perp REAL, dneb     0.022342    0.173606    0.000000
 NEB: distance to prev, next image, angle between     1.170790    1.175258  166.756274
 NEB: projections on to tangent (spring, REAL)     0.022342   -0.076489

 stress matrix after NEB project (eV)
     -3.61301     -0.12953      0.01256
     -0.12953     -3.21523      0.06657
      0.01256      0.06657     -3.86681
  FORCES: max atom, RMS     0.086333    0.037318
  FORCE total and by dimension    0.175038    0.068845
  Stress total and by dimension    6.195682    3.866808
 OPT: skip step - force has converged


--------------------------------------------------------------------------------------------------------


  
 reached required accuracy - stopping structural energy minimisation
     LOOP+:  cpu time 1816.0029: real time 1815.6997
    4ORBIT:  cpu time    0.0000: real time    0.0000

 total amount of memory used by VASP on root node  4333715. kBytes
========================================================================

   base      :      30000. kBytes
   nonlr-proj:       2410. kBytes
   fftplans  :     924480. kBytes
   grid      :    2089440. kBytes
   one-center:         67. kBytes
   wavefun   :    1287318. kBytes
 
  
  
 General timing and accounting informations for this job:
 ========================================================
  
                  Total CPU time used (sec):   123687.328
                            User time (sec):   122914.935
                          System time (sec):      772.396
                         Elapsed time (sec):   123693.210
  
                   Maximum memory used (kb):     5900956.
                   Average memory used (kb):           0.
  
                          Minor page faults:    183169967
                          Major page faults:            8
                 Voluntary context switches:         7971
