unknown system                          
           1
    30.000000    0.000000    0.000000
     0.000000   30.000000    0.000000
     0.000000    0.000000   30.000000
   H    C    N    O 
  12   6   2   2
Direct configuration=     1
   0.37422135  0.54033109  0.49832306
   0.38521085  0.49196415  0.46481643
   0.37989419  0.48660708  0.52377702
   0.45007363  0.45349762  0.48635375
   0.50635907  0.45469732  0.55131601
   0.55893792  0.41593058  0.49350436
   0.51940872  0.43392242  0.45262297
   0.50259045  0.39613625  0.49482447
   0.51072329  0.55321331  0.51187960
   0.61023265  0.55244773  0.49683031
   0.57267379  0.57564342  0.45626824
   0.58039717  0.60249326  0.50902272
   0.39194765  0.50849977  0.49685383
   0.44107436  0.51685976  0.50481793
   0.51092400  0.46554246  0.51642406
   0.52399636  0.42504272  0.48788307
   0.55091144  0.49810291  0.51600026
   0.57854513  0.57007064  0.49221075
   0.46701488  0.47994926  0.49913226
   0.54340415  0.54201527  0.50990169
   0.45462968  0.55419508  0.51658264
   0.58847802  0.48127523  0.51994729
Direct configuration=     2
   0.37418790  0.54032645  0.49829248
   0.38522309  0.49195363  0.46481648
   0.37981873  0.48663049  0.52372204
   0.45001225  0.45347756  0.48639228
   0.50640505  0.45469177  0.55133752
   0.55889645  0.41599747  0.49350706
   0.51951451  0.43396205  0.45253133
   0.50257851  0.39613107  0.49482574
   0.51074123  0.55320368  0.51177731
   0.61025988  0.55247420  0.49684382
   0.57276491  0.57569872  0.45635931
   0.58033308  0.60251406  0.50913206
   0.39192922  0.50849137  0.49687246
   0.44107409  0.51682966  0.50485347
   0.51090330  0.46551877  0.51641083
   0.52394673  0.42505435  0.48780691
   0.55094904  0.49806015  0.51597442
   0.57857179  0.57008062  0.49228718
   0.46700620  0.47990652  0.49912813
   0.54338542  0.54197796  0.50980666
   0.45459752  0.55416595  0.51666229
   0.58854957  0.48129210  0.51995287
Direct configuration=     3
   0.37414183  0.54031752  0.49824745
   0.38524208  0.49194141  0.46482098
   0.37969826  0.48665048  0.52366126
   0.44992151  0.45344196  0.48644672
   0.50647199  0.45468503  0.55136176
   0.55883078  0.41608774  0.49351471
   0.51966292  0.43401355  0.45240118
   0.50255853  0.39612379  0.49482325
   0.51075498  0.55319005  0.51162644
   0.61030688  0.55251218  0.49686866
   0.57289915  0.57578673  0.45648259
   0.58024071  0.60253519  0.50928942
   0.39190912  0.50849323  0.49687167
   0.44106344  0.51679013  0.50491283
   0.51088741  0.46547941  0.51639027
   0.52389126  0.42506471  0.48771520
   0.55099864  0.49801783  0.51592927
   0.57860157  0.57011006  0.49239368
   0.46698779  0.47987013  0.49913072
   0.54338881  0.54189890  0.50966586
   0.45455341  0.55411278  0.51678202
   0.58863703  0.48131760  0.51995660
Direct configuration=     4
   0.37408621  0.54030657  0.49818772
   0.38526780  0.49192857  0.46482648
   0.37953168  0.48666285  0.52360313
   0.44981045  0.45339811  0.48651900
   0.50655784  0.45467923  0.55138022
   0.55874688  0.41618687  0.49353369
   0.51984340  0.43406522  0.45224950
   0.50252918  0.39611574  0.49481245
   0.51077062  0.55316352  0.51142958
   0.61037398  0.55256603  0.49690820
   0.57307244  0.57591384  0.45662288
   0.58012307  0.60255091  0.50949093
   0.39188838  0.50850731  0.49684616
   0.44102987  0.51674289  0.50499824
   0.51088700  0.46543070  0.51636205
   0.52383801  0.42506989  0.48762056
   0.55105856  0.49797172  0.51586046
   0.57863753  0.57015894  0.49251912
   0.46695362  0.47984275  0.49914250
   0.54340998  0.54179384  0.50947848
   0.45450627  0.55403893  0.51694765
   0.58872491  0.48134812  0.51995344
Direct configuration=     5
   0.37402364  0.54029978  0.49811189
   0.38529976  0.49191389  0.46482165
   0.37932559  0.48667545  0.52354163
   0.44969330  0.45336001  0.48661315
   0.50666036  0.45467689  0.55138380
   0.55866035  0.41627508  0.49357268
   0.52004364  0.43410183  0.45210260
   0.50248983  0.39610915  0.49478783
   0.51080352  0.55310989  0.51119036
   0.61045678  0.55264433  0.49696581
   0.57327934  0.57608767  0.45676341
   0.57998362  0.60255868  0.50973425
   0.39185623  0.50852137  0.49681560
   0.44096856  0.51669320  0.50510998
   0.51090373  0.46538689  0.51632506
   0.52378674  0.42506933  0.48752923
   0.55112121  0.49791384  0.51576421
   0.57869060  0.57021481  0.49264569
   0.46690122  0.47981085  0.49916409
   0.54342564  0.54169759  0.50924280
   0.45446462  0.55395103  0.51716799
   0.58880889  0.48137337  0.51993857
Direct configuration=     6
   0.37395722  0.54030281  0.49801927
   0.38533783  0.49189668  0.46479643
   0.37909110  0.48669917  0.52346703
   0.44958012  0.45333226  0.48672743
   0.50677698  0.45468037  0.55136566
   0.55858791  0.41633232  0.49363892
   0.52024943  0.43410998  0.45198525
   0.50244042  0.39610641  0.49474486
   0.51085403  0.55302438  0.51091580
   0.61055145  0.55275157  0.49704542
   0.57351421  0.57631318  0.45688953
   0.57982842  0.60255457  0.51001328
   0.39179825  0.50852244  0.49680362
   0.44089122  0.51664911  0.50524979
   0.51092525  0.46535874  0.51627566
   0.52373765  0.42506353  0.48744683
   0.55117273  0.49785628  0.51563649
   0.57876264  0.57027177  0.49275429
   0.46683754  0.47977161  0.49920166
   0.54343409  0.54162003  0.50896142
   0.45442960  0.55384806  0.51744489
   0.58888859  0.48138199  0.51990863
Direct configuration=     7
   0.37388325  0.54031835  0.49789774
   0.38538882  0.49187840  0.46474652
   0.37880525  0.48673878  0.52337212
   0.44946201  0.45330425  0.48686843
   0.50692063  0.45469265  0.55131630
   0.55853162  0.41634350  0.49374717
   0.52046837  0.43407826  0.45190219
   0.50237338  0.39610962  0.49467179
   0.51090918  0.55290249  0.51057962
   0.61067050  0.55290109  0.49716474
   0.57380332  0.57662600  0.45700088
   0.57964683  0.60252602  0.51035238
   0.39169807  0.50850934  0.49681126
   0.44080479  0.51660134  0.50543887
   0.51093543  0.46534934  0.51620150
   0.52369900  0.42504964  0.48737884
   0.55121854  0.49781515  0.51545725
   0.57885130  0.57034727  0.49284018
   0.46676528  0.47973842  0.49927329
   0.54346399  0.54153312  0.50860367
   0.45439373  0.55371510  0.51781357
   0.58895289  0.48137161  0.51985372
Direct configuration=     8
   0.37380416  0.54034524  0.49774276
   0.38545841  0.49186811  0.46468328
   0.37845294  0.48678141  0.52327533
   0.44934187  0.45326946  0.48703364
   0.50709562  0.45471605  0.55122699
   0.55849098  0.41628840  0.49390477
   0.52068798  0.43399886  0.45185549
   0.50228451  0.39612193  0.49455568
   0.51095240  0.55275011  0.51017774
   0.61081745  0.55309783  0.49733956
   0.57415745  0.57704893  0.45708548
   0.57944215  0.60245522  0.51075233
   0.39156757  0.50849804  0.49680819
   0.44071155  0.51653227  0.50568866
   0.51092513  0.46536220  0.51609632
   0.52369720  0.42502181  0.48735012
   0.55127371  0.49778784  0.51522154
   0.57894702  0.57046234  0.49289883
   0.46668220  0.47972020  0.49938708
   0.54353227  0.54142716  0.50815420
   0.45435388  0.55355462  0.51828986
   0.58896917  0.48134432  0.51976402
Direct configuration=     9
   0.37372377  0.54038601  0.49755069
   0.38555441  0.49187739  0.46462028
   0.37801745  0.48681980  0.52319022
   0.44923311  0.45324010  0.48722175
   0.50730469  0.45476581  0.55110239
   0.55846179  0.41613932  0.49413446
   0.52090091  0.43385401  0.45184800
   0.50216438  0.39614313  0.49440555
   0.51100520  0.55256764  0.50970536
   0.61098189  0.55335780  0.49756820
   0.57458949  0.57760735  0.45712794
   0.57921728  0.60234165  0.51120888
   0.39144699  0.50850820  0.49677578
   0.44059418  0.51645343  0.50601663
   0.51091696  0.46539902  0.51597353
   0.52373067  0.42497037  0.48737897
   0.55131092  0.49775249  0.51491764
   0.57906220  0.57061244  0.49292104
   0.46657420  0.47967856  0.49952427
   0.54358661  0.54134433  0.50758112
   0.45430274  0.55335558  0.51889144
   0.58896531  0.48128035  0.51962760
Direct configuration=    10
   0.37365218  0.54044871  0.49731782
   0.38568983  0.49191165  0.46455376
   0.37750974  0.48689374  0.52307544
   0.44912445  0.45319166  0.48740379
   0.50754846  0.45487151  0.55097920
   0.55843205  0.41586627  0.49447425
   0.52111364  0.43361739  0.45189410
   0.50199508  0.39616744  0.49426610
   0.51106723  0.55238596  0.50915896
   0.61114536  0.55369071  0.49782729
   0.57511936  0.57832201  0.45712823
   0.57897478  0.60220826  0.51170833
   0.39135211  0.50852777  0.49678187
   0.44044893  0.51635890  0.50642319
   0.51093721  0.46543551  0.51585487
   0.52375958  0.42487871  0.48744967
   0.55132232  0.49772181  0.51452051
   0.57919147  0.57078170  0.49288397
   0.46645588  0.47962281  0.49967603
   0.54361878  0.54126519  0.50684449
   0.45423053  0.55310461  0.51965061
   0.58895579  0.48118421  0.51941917
Direct configuration=    11
   0.37362035  0.54052448  0.49705049
   0.38589092  0.49198509  0.46451103
   0.37695135  0.48703779  0.52289894
   0.44900343  0.45309763  0.48754171
   0.50782918  0.45505975  0.55092784
   0.55833722  0.41546300  0.49494357
   0.52134798  0.43328195  0.45197785
   0.50174773  0.39617698  0.49420461
   0.51110600  0.55226541  0.50853871
   0.61130262  0.55407220  0.49808175
   0.57576894  0.57919509  0.45711215
   0.57871176  0.60206337  0.51221461
   0.39123623  0.50856003  0.49684514
   0.44032421  0.51621394  0.50690839
   0.51097342  0.46544021  0.51573980
   0.52377396  0.42471750  0.48755971
   0.55139325  0.49768740  0.51401870
   0.57928620  0.57100544  0.49279562
   0.46635382  0.47956867  0.49983188
   0.54367530  0.54112059  0.50589836
   0.45413301  0.55279295  0.52058868
   0.58887778  0.48112756  0.51910213
Direct configuration=    12
   0.37364437  0.54063221  0.49676979
   0.38616921  0.49210311  0.46453446
   0.37631805  0.48720218  0.52273168
   0.44891490  0.45303054  0.48764971
   0.50815479  0.45533241  0.55097128
   0.55812445  0.41494844  0.49550935
   0.52164321  0.43288350  0.45204460
   0.50141372  0.39615548  0.49424621
   0.51122868  0.55218239  0.50784510
   0.61140523  0.55449198  0.49830921
   0.57654954  0.58021978  0.45713317
   0.57839841  0.60192805  0.51273239
   0.39116186  0.50863363  0.49684297
   0.44020709  0.51604956  0.50748041
   0.51100636  0.46541458  0.51564093
   0.52373438  0.42447484  0.48771698
   0.55125351  0.49767366  0.51339718
   0.57939764  0.57125795  0.49271464
   0.46625829  0.47936176  0.49992687
   0.54358725  0.54106086  0.50470521
   0.45402121  0.55238563  0.52167157
   0.58905259  0.48103413  0.51871803
Direct configuration=    13
   0.37370925  0.54078900  0.49648152
   0.38647644  0.49217482  0.46449364
   0.37566733  0.48740770  0.52252684
   0.44873563  0.45278553  0.48766576
   0.50853313  0.45561030  0.55101546
   0.55784571  0.41439619  0.49603386
   0.52202848  0.43252602  0.45207997
   0.50103043  0.39610601  0.49427410
   0.51119940  0.55224748  0.50710520
   0.61147148  0.55485641  0.49860444
   0.57745282  0.58134797  0.45731980
   0.57800862  0.60180709  0.51333953
   0.39112345  0.50870604  0.49694801
   0.44009999  0.51565243  0.50799378
   0.51097817  0.46529953  0.51555874
   0.52364262  0.42422453  0.48779715
   0.55189962  0.49740926  0.51282460
   0.57944271  0.57158301  0.49269664
   0.46620960  0.47938120  0.50011278
   0.54367689  0.54083065  0.50338012
   0.45395922  0.55192213  0.52281721
   0.58845350  0.48139456  0.51822256
Direct configuration=    14
   0.37372923  0.54079200  0.49648643
   0.38647696  0.49217130  0.46450137
   0.37566582  0.48740629  0.52253113
   0.44878190  0.45284953  0.48769235
   0.50853523  0.45559728  0.55101109
   0.55783716  0.41439453  0.49600940
   0.52204341  0.43254528  0.45206726
   0.50103210  0.39610159  0.49425030
   0.51126123  0.55221304  0.50709921
   0.61145981  0.55485511  0.49862311
   0.57747086  0.58136662  0.45734748
   0.57799028  0.60181311  0.51337054
   0.39111882  0.50868830  0.49692267
   0.44011548  0.51577482  0.50803524
   0.51100808  0.46531188  0.51554959
   0.52361640  0.42423133  0.48779187
   0.55118815  0.49774210  0.51272651
   0.57945071  0.57156718  0.49272492
   0.46618177  0.47922548  0.50006139
   0.54362308  0.54084458  0.50337536
   0.45394213  0.55184331  0.52278362
   0.58911577  0.48112377  0.51833081
Direct configuration=    15
   0.37373311  0.54079208  0.49648710
   0.38647720  0.49216940  0.46450113
   0.37566602  0.48740621  0.52253166
   0.44878208  0.45284804  0.48769161
   0.50853724  0.45559408  0.55100886
   0.55783462  0.41439590  0.49600273
   0.52204678  0.43255070  0.45206438
   0.50103110  0.39610137  0.49424442
   0.51126518  0.55221335  0.50709661
   0.61145668  0.55485231  0.49862921
   0.57747382  0.58136990  0.45735609
   0.57798436  0.60181219  0.51337798
   0.39111863  0.50868765  0.49692063
   0.44011255  0.51576291  0.50803021
   0.51100770  0.46531532  0.51554753
   0.52361739  0.42423236  0.48778804
   0.55124808  0.49770434  0.51273770
   0.57945425  0.57156557  0.49273269
   0.46617875  0.47922274  0.50006148
   0.54360952  0.54086212  0.50337112
   0.45394890  0.55184725  0.52278459
   0.58906037  0.48115277  0.51832587
Direct configuration=    16
   0.37374106  0.54079234  0.49648846
   0.38647770  0.49216553  0.46450061
   0.37566642  0.48740613  0.52253261
   0.44878242  0.45284472  0.48768998
   0.50854121  0.45558770  0.55100426
   0.55782961  0.41439846  0.49598933
   0.52205360  0.43256167  0.45205850
   0.50102916  0.39610102  0.49423243
   0.51127171  0.55221444  0.50709167
   0.61145072  0.55484650  0.49864177
   0.57748023  0.58137681  0.45737344
   0.57797267  0.60181046  0.51339318
   0.39111822  0.50868614  0.49691666
   0.44010790  0.51574191  0.50802121
   0.51100727  0.46532108  0.51554341
   0.52361857  0.42423464  0.48778029
   0.55134958  0.49764111  0.51275672
   0.57946003  0.57156317  0.49274816
   0.46617312  0.47921718  0.50006181
   0.54358625  0.54089165  0.50336311
   0.45396119  0.55185233  0.52278553
   0.58896563  0.48120387  0.51831847
Direct configuration=    17
   0.37375466  0.54079315  0.49649067
   0.38647857  0.49215905  0.46449953
   0.37566704  0.48740629  0.52253391
   0.44878291  0.45283822  0.48768663
   0.50854757  0.45557762  0.55099656
   0.55782174  0.41440171  0.49596774
   0.52206495  0.43257950  0.45204876
   0.50102598  0.39610059  0.49421265
   0.51127792  0.55221753  0.50708431
   0.61144184  0.55483638  0.49866299
   0.57749209  0.58138910  0.45740202
   0.57795400  0.60180781  0.51341853
   0.39111762  0.50868301  0.49691057
   0.44010382  0.51571705  0.50801025
   0.51100727  0.46532731  0.51553663
   0.52361823  0.42423859  0.48776781
   0.55145540  0.49757821  0.51277670
   0.57946540  0.57156171  0.49277286
   0.46616591  0.47920766  0.50006267
   0.54356058  0.54092204  0.50335146
   0.45397759  0.55185201  0.52278435
   0.58886308  0.48126484  0.51831395
Direct configuration=    18
   0.37375567  0.54079333  0.49649081
   0.38647866  0.49215861  0.46449940
   0.37566706  0.48740638  0.52253393
   0.44878294  0.45283757  0.48768622
   0.50854795  0.45557713  0.55099607
   0.55782130  0.41440162  0.49596654
   0.52206571  0.43258052  0.45204817
   0.50102572  0.39610058  0.49421146
   0.51127735  0.55221800  0.50708398
   0.61144146  0.55483561  0.49866443
   0.57749314  0.58139013  0.45740383
   0.57795290  0.60180767  0.51342021
   0.39111763  0.50868269  0.49691030
   0.44010428  0.51571748  0.50801039
   0.51100740  0.46532702  0.51553622
   0.52361770  0.42423885  0.48776714
   0.55144851  0.49758315  0.51277541
   0.57946487  0.57156212  0.49277423
   0.46616594  0.47920693  0.50006278
   0.54356159  0.54092023  0.50335093
   0.45397789  0.55185016  0.52278381
   0.58886848  0.48126361  0.51831530
Direct configuration=    19
   0.37375774  0.54079372  0.49649109
   0.38647889  0.49215775  0.46449913
   0.37566708  0.48740659  0.52253400
   0.44878301  0.45283630  0.48768534
   0.50854875  0.45557627  0.55099513
   0.55782036  0.41440138  0.49596429
   0.52206722  0.43258241  0.45204707
   0.50102511  0.39610055  0.49420925
   0.51127625  0.55221895  0.50708326
   0.61144069  0.55483410  0.49866721
   0.57749524  0.58139221  0.45740736
   0.57795066  0.60180738  0.51342351
   0.39111768  0.50868205  0.49690979
   0.44010518  0.51571827  0.50801069
   0.51100763  0.46532651  0.51553540
   0.52361664  0.42423930  0.48776588
   0.55143527  0.49759267  0.51277284
   0.57946387  0.57156292  0.49277688
   0.46616600  0.47920548  0.50006299
   0.54356351  0.54091675  0.50334974
   0.45397853  0.55184653  0.52278288
   0.58887882  0.48126137  0.51831781
Direct configuration=    20
   0.37376093  0.54079438  0.49649152
   0.38647933  0.49215651  0.46449874
   0.37566709  0.48740695  0.52253409
   0.44878317  0.45283441  0.48768392
   0.50854998  0.45557520  0.55099383
   0.55781883  0.41440086  0.49596119
   0.52206950  0.43258502  0.45204556
   0.50102400  0.39610048  0.49420623
   0.51127472  0.55222039  0.50708210
   0.61143950  0.55483185  0.49867121
   0.57749840  0.58139540  0.45741252
   0.57794722  0.60180693  0.51342836
   0.39111781  0.50868116  0.49690906
   0.44010647  0.51571922  0.50801115
   0.51100796  0.46532584  0.51553421
   0.52361501  0.42423986  0.48776417
   0.55141676  0.49760607  0.51276906
   0.57946246  0.57156408  0.49278070
   0.46616608  0.47920329  0.50006327
   0.54356608  0.54091194  0.50334768
   0.45397963  0.55184119  0.52278180
   0.58889320  0.48125855  0.51832117
Direct configuration=    21
   0.37376539  0.54079538  0.49649210
   0.38648008  0.49215491  0.46449823
   0.37566707  0.48740753  0.52253423
   0.44878346  0.45283191  0.48768182
   0.50855169  0.45557411  0.55099223
   0.55781658  0.41439989  0.49595746
   0.52207257  0.43258813  0.45204378
   0.50102219  0.39610032  0.49420267
   0.51127287  0.55222232  0.50708038
   0.61143782  0.55482885  0.49867633
   0.57750264  0.58139981  0.45741922
   0.57794243  0.60180628  0.51343474
   0.39111809  0.50868004  0.49690814
   0.44010810  0.51571997  0.50801174
   0.51100834  0.46532512  0.51553267
   0.52361277  0.42424042  0.48776215
   0.55139458  0.49762231  0.51276419
   0.57946074  0.57156556  0.49278561
   0.46616611  0.47920036  0.50006360
   0.54356894  0.54090631  0.50334441
   0.45398139  0.55183427  0.52278088
   0.58891023  0.48125585  0.51832497
Direct configuration=    22
   0.37377134  0.54079685  0.49649287
   0.38648127  0.49215295  0.46449759
   0.37566699  0.48740840  0.52253441
   0.44878396  0.45282878  0.48767886
   0.50855400  0.45557323  0.55099040
   0.55781339  0.41439825  0.49595332
   0.52207653  0.43259154  0.45204185
   0.50101939  0.39610004  0.49419882
   0.51127085  0.55222479  0.50707791
   0.61143555  0.55482507  0.49868249
   0.57750809  0.58140567  0.45742749
   0.57793606  0.60180541  0.51344271
   0.39111860  0.50867876  0.49690705
   0.44010999  0.51572003  0.50801241
   0.51100875  0.46532450  0.51553078
   0.52360984  0.42424086  0.48775996
   0.55137097  0.49763994  0.51275840
   0.57945887  0.57156731  0.49279157
   0.46616603  0.47919664  0.50006395
   0.54357155  0.54090055  0.50333944
   0.45398408  0.55182589  0.52278056
   0.58892799  0.48125431  0.51832867
Direct configuration=    23
   0.37377892  0.54079885  0.49649382
   0.38648300  0.49215066  0.46449684
   0.37566683  0.48740964  0.52253465
   0.44878471  0.45282504  0.48767490
   0.50855696  0.45557277  0.55098844
   0.55780910  0.41439574  0.49594901
   0.52208140  0.43259501  0.45203994
   0.50101538  0.39609961  0.49419496
   0.51126888  0.55222779  0.50707454
   0.61143257  0.55482052  0.49868960
   0.57751477  0.58141312  0.45743723
   0.57792794  0.60180427  0.51345229
   0.39111945  0.50867737  0.49690582
   0.44011200  0.51571876  0.50801305
   0.51100912  0.46532413  0.51552859
   0.52360623  0.42424110  0.48775776
   0.55134904  0.49765686  0.51275204
   0.57945706  0.57156925  0.49279850
   0.46616571  0.47919213  0.50006428
   0.54357318  0.54089569  0.50333235
   0.45398799  0.55181638  0.52278127
   0.58894379  0.48125523  0.51833165
Direct configuration=    24
   0.37378886  0.54080161  0.49649503
   0.38648546  0.49214787  0.46449590
   0.37566656  0.48741140  0.52253496
   0.44878583  0.45282037  0.48766952
   0.50856091  0.45557279  0.55098617
   0.55780327  0.41439204  0.49594428
   0.52208763  0.43259877  0.45203793
   0.50100964  0.39609899  0.49419085
   0.51126701  0.55223153  0.50706982
   0.61142855  0.55481485  0.49869828
   0.57752332  0.58142294  0.45744929
   0.57791724  0.60180274  0.51346438
   0.39112077  0.50867581  0.49690440
   0.44011418  0.51571544  0.50801357
   0.51100943  0.46532410  0.51552591
   0.52360170  0.42424109  0.48775538
   0.55133002  0.49767235  0.51274502
   0.57945539  0.57157145  0.49280698
   0.46616502  0.47918642  0.50006458
   0.54357322  0.54089233  0.50332218
   0.45399370  0.55180530  0.52278342
   0.58895631  0.48125991  0.51833365
Direct configuration=    25
   0.37380126  0.54080516  0.49649645
   0.38648868  0.49214455  0.46449477
   0.37566616  0.48741369  0.52253533
   0.44878733  0.45281471  0.48766271
   0.50856594  0.45557329  0.55098357
   0.55779586  0.41438710  0.49593910
   0.52209524  0.43260288  0.45203578
   0.50100210  0.39609829  0.49418634
   0.51126536  0.55223601  0.50706361
   0.61142338  0.55480807  0.49870874
   0.57753384  0.58143531  0.45746377
   0.57790381  0.60180074  0.51347928
   0.39112266  0.50867410  0.49690280
   0.44011637  0.51570944  0.50801380
   0.51100959  0.46532451  0.51552274
   0.52359634  0.42424085  0.48775269
   0.55131699  0.49768426  0.51273784
   0.57945407  0.57157384  0.49281715
   0.46616381  0.47917946  0.50006485
   0.54357091  0.54089148  0.50330863
   0.45400141  0.55179298  0.52278720
   0.58896286  0.48126956  0.51833431
Direct configuration=    26
   0.37381634  0.54080950  0.49649806
   0.38649271  0.49214059  0.46449342
   0.37566559  0.48741652  0.52253575
   0.44878919  0.45280781  0.48765449
   0.50857222  0.45557406  0.55098042
   0.55778683  0.41438092  0.49593313
   0.52210439  0.43260777  0.45203321
   0.50099264  0.39609769  0.49418084
   0.51126399  0.55224126  0.50705564
   0.61141687  0.55480014  0.49872167
   0.57754675  0.58145070  0.45748123
   0.57788727  0.60179817  0.51349776
   0.39112522  0.50867218  0.49690103
   0.44011850  0.51570016  0.50801358
   0.51100957  0.46532537  0.51551896
   0.52359026  0.42424049  0.48774933
   0.55131231  0.49769092  0.51273086
   0.57945331  0.57157646  0.49282950
   0.46616191  0.47917101  0.50006510
   0.54356552  0.54089401  0.50329127
   0.45401137  0.55177951  0.52279267
   0.58896117  0.48128532  0.51833355
Direct configuration=    27
   0.37383458  0.54081482  0.49649982
   0.38649767  0.49213594  0.46449184
   0.37566481  0.48742003  0.52253620
   0.44879153  0.45279949  0.48764451
   0.50858000  0.45557531  0.55097670
   0.55777590  0.41437310  0.49592647
   0.52211525  0.43261335  0.45203026
   0.50098087  0.39609727  0.49417435
   0.51126282  0.55224743  0.50704555
   0.61140878  0.55479093  0.49873745
   0.57756246  0.58146974  0.45750198
   0.57786714  0.60179488  0.51352042
   0.39112863  0.50867006  0.49689908
   0.44012063  0.51568710  0.50801295
   0.51100932  0.46532671  0.51551452
   0.52358339  0.42423983  0.48774527
   0.55131768  0.49769120  0.51272405
   0.57945321  0.57157939  0.49284422
   0.46615923  0.47916080  0.50006527
   0.54355641  0.54090055  0.50326930
   0.45402388  0.55176463  0.52280031
   0.58894969  0.48130825  0.51833094
Direct configuration=    28
   0.37385677  0.54082142  0.49650175
   0.38650379  0.49213053  0.46449003
   0.37566374  0.48742447  0.52253669
   0.44879455  0.45278938  0.48763216
   0.50858963  0.45557739  0.55097235
   0.55776264  0.41436294  0.49591931
   0.52212813  0.43261953  0.45202693
   0.50096612  0.39609717  0.49416680
   0.51126150  0.55225491  0.50703279
   0.61139879  0.55478018  0.49875677
   0.57758178  0.58149353  0.45752656
   0.57784263  0.60179068  0.51354829
   0.39113320  0.50866775  0.49689698
   0.44012307  0.51567002  0.50801218
   0.51100881  0.46532840  0.51550927
   0.52357551  0.42423863  0.48774053
   0.55133255  0.49768557  0.51271670
   0.57945377  0.57158308  0.49286169
   0.46615571  0.47914831  0.50006527
   0.54354322  0.54091105  0.50324144
   0.45403924  0.55174740  0.52281071
   0.58892866  0.48133886  0.51832624
Direct configuration=    29
   0.37388431  0.54082979  0.49650378
   0.38651143  0.49212424  0.46448799
   0.37566223  0.48743026  0.52253717
   0.44879853  0.45277676  0.48761640
   0.50860170  0.45558082  0.55096729
   0.55774641  0.41434920  0.49591195
   0.52214352  0.43262611  0.45202320
   0.50094735  0.39609764  0.49415802
   0.51125895  0.55226439  0.50701652
   0.61138641  0.55476747  0.49878091
   0.57760613  0.58152395  0.45755587
   0.57781252  0.60178520  0.51358311
   0.39113939  0.50866517  0.49689470
   0.44012670  0.51564932  0.50801211
   0.51100808  0.46532998  0.51550292
   0.52356614  0.42423653  0.48773519
   0.55135120  0.49767810  0.51270676
   0.57945450  0.57158842  0.49288254
   0.46615152  0.47913259  0.50006496
   0.54352641  0.54092389  0.50320572
   0.45405761  0.55172556  0.52282464
   0.58890266  0.48137620  0.51831964
Direct configuration=    30
   0.37391815  0.54084032  0.49650581
   0.38652082  0.49211717  0.46448584
   0.37566016  0.48743777  0.52253760
   0.44880376  0.45276110  0.48759629
   0.50861655  0.45558627  0.55096160
   0.55772687  0.41433061  0.49590510
   0.52216156  0.43263258  0.45201921
   0.50092381  0.39609898  0.49414811
   0.51125355  0.55227659  0.50699623
   0.61137150  0.55475258  0.49881074
   0.57763672  0.58156257  0.45759014
   0.57777628  0.60177822  0.51362604
   0.39114755  0.50866233  0.49689224
   0.44013257  0.51562688  0.50801411
   0.51100732  0.46533063  0.51549519
   0.52355483  0.42423309  0.48772960
   0.55136037  0.49767791  0.51269088
   0.57945434  0.57159639  0.49290665
   0.46614725  0.47911291  0.50006423
   0.54350820  0.54093498  0.50316092
   0.45407840  0.55169640  0.52284257
   0.58888303  0.48141581  0.51831225
Direct configuration=    31
   0.37395857  0.54085319  0.49650766
   0.38653204  0.49210962  0.46448379
   0.37565747  0.48744731  0.52253792
   0.44881042  0.45274228  0.48757122
   0.50863420  0.45559440  0.55095561
   0.55770414  0.41430618  0.49589980
   0.52218199  0.43263810  0.45201527
   0.50089519  0.39610143  0.49413759
   0.51124404  0.55229187  0.50697180
   0.61135417  0.55473577  0.49884638
   0.57767402  0.58161018  0.45762873
   0.57773419  0.60176967  0.51367721
   0.39115788  0.50865935  0.49688967
   0.44014117  0.51560415  0.50801914
   0.51100680  0.46532964  0.51548598
   0.52354133  0.42422791  0.48772440
   0.55134858  0.49769269  0.51266631
   0.57945226  0.57160750  0.49293346
   0.46614362  0.47908910  0.50006295
   0.54349078  0.54094068  0.50310660
   0.45410082  0.55165846  0.52286491
   0.58887980  0.48145316  0.51830492
Direct configuration=    32
   0.37400649  0.54086885  0.49650905
   0.38654536  0.49210201  0.46448212
   0.37565398  0.48745945  0.52253806
   0.44881888  0.45271995  0.48753992
   0.50865504  0.45560632  0.55094968
   0.55767793  0.41427414  0.49589762
   0.52220465  0.43264140  0.45201188
   0.50086039  0.39610537  0.49412710
   0.51122945  0.55231063  0.50694237
   0.61133399  0.55471738  0.49888850
   0.57771917  0.58166865  0.45767128
   0.57768579  0.60175923  0.51373772
   0.39117092  0.50865651  0.49688716
   0.44015262  0.51558051  0.50802786
   0.51100684  0.46532661  0.51547500
   0.52352574  0.42422029  0.48772028
   0.55131223  0.49772477  0.51263109
   0.57944773  0.57162224  0.49296239
   0.46614112  0.47906079  0.50006090
   0.54347413  0.54093992  0.50304078
   0.45412498  0.55161104  0.52289359
   0.58889593  0.48148719  0.51829693
Direct configuration=    33
   0.37406417  0.54088830  0.49650945
   0.38656159  0.49209500  0.46448137
   0.37564942  0.48747544  0.52253793
   0.44883004  0.45269353  0.48749983
   0.50868020  0.45562436  0.55094439
   0.55764734  0.41423089  0.49590157
   0.52222948  0.43264005  0.45201010
   0.50081677  0.39611149  0.49411790
   0.51120959  0.55233320  0.50690558
   0.61130954  0.55469814  0.49893874
   0.57777454  0.58174202  0.45771763
   0.57762942  0.60174605  0.51381032
   0.39118784  0.50865442  0.49688497
   0.44016642  0.51555134  0.50804036
   0.51100785  0.46532183  0.51546179
   0.52350871  0.42420879  0.48771829
   0.55126428  0.49776524  0.51258484
   0.57944095  0.57164091  0.49299289
   0.46613982  0.47902724  0.50005752
   0.54345360  0.54093717  0.50295812
   0.45415252  0.55155470  0.52293356
   0.58891915  0.48152384  0.51828409
Direct configuration=    34
   0.37413215  0.54091193  0.49650829
   0.38658110  0.49208945  0.46448200
   0.37564365  0.48749606  0.52253748
   0.44884468  0.45266363  0.48744975
   0.50871020  0.45565020  0.55094032
   0.55761226  0.41417431  0.49591447
   0.52225589  0.43263155  0.45201110
   0.50076292  0.39612013  0.49411158
   0.51118663  0.55235852  0.50685980
   0.61127959  0.55467967  0.49899706
   0.57784065  0.58183198  0.45776657
   0.57756479  0.60172935  0.51389554
   0.39120901  0.50865391  0.49688352
   0.44018114  0.51551087  0.50805561
   0.51101021  0.46531688  0.51544644
   0.52349181  0.42419178  0.48771942
   0.55123785  0.49779206  0.51253198
   0.57943329  0.57166227  0.49302388
   0.46613888  0.47898880  0.50005213
   0.54342134  0.54094305  0.50285507
   0.45418511  0.55149304  0.52298912
   0.58891993  0.48157518  0.51826005
Direct configuration=    35
   0.37421101  0.54094023  0.49650492
   0.38660420  0.49208627  0.46448447
   0.37563638  0.48752219  0.52253671
   0.44886383  0.45263099  0.48738831
   0.50874549  0.45568571  0.55093787
   0.55757271  0.41410172  0.49593951
   0.52228325  0.43261301  0.45201619
   0.50069743  0.39613157  0.49410979
   0.51116120  0.55238565  0.50680354
   0.61124302  0.55466376  0.49906360