  22  22   0   0
  0.1227273E+04  0.3000000E-08  0.3000000E-08  0.3000000E-08  0.0000000E+00
  1.000000000000000E-004
  CAR 
 unknown system                          
      2.19868962    -28.21014278  301     -4.49046161      1.00000000
    -28.210  0.0000E+00  0.0000E+00
    -28.109  0.0000E+00  0.0000E+00
    -28.007  0.0000E+00  0.0000E+00
    -27.906  0.0000E+00  0.0000E+00
    -27.805  0.0000E+00  0.0000E+00
    -27.703  0.0000E+00  0.0000E+00
    -27.602  0.0000E+00  0.0000E+00
    -27.501  0.0000E+00  0.0000E+00
    -27.399  0.0000E+00  0.0000E+00
    -27.298  0.4783E-15  0.4848E-16
    -27.197  0.1003E-12  0.1022E-13
    -27.095  0.1272E-10  0.1300E-11
    -26.994  0.9749E-09  0.1001E-09
    -26.892  0.4517E-07  0.4679E-08
    -26.791  0.1268E-05  0.1332E-06
    -26.690  0.2159E-04  0.2321E-05
    -26.588  0.2234E-03  0.2497E-04
    -26.487  0.1407E-02  0.1676E-03
    -26.386  0.5406E-02  0.7156E-03
    -26.284  0.1268E-01  0.2001E-02
    -26.183  0.1817E-01  0.3843E-02
    -26.082  0.1592E-01  0.5457E-02
    -25.980  0.8559E-02  0.6324E-02
    -25.879  0.3117E-02  0.6640E-02
    -25.777  0.2446E-02  0.6888E-02
    -25.676  0.6675E-02  0.7565E-02
    -25.575  0.1411E-01  0.8995E-02
    -25.473  0.1840E-01  0.1086E-01
    -25.372  0.1468E-01  0.1235E-01
    -25.271  0.7155E-02  0.1307E-01
    -25.169  0.2130E-02  0.1329E-01
    -25.068  0.3868E-03  0.1333E-01
    -24.967  0.4278E-04  0.1333E-01
    -24.865  0.2877E-05  0.1333E-01
    -24.764  0.1174E-06  0.1333E-01
    -24.662  0.2904E-08  0.1333E-01
    -24.561  0.4346E-10  0.1333E-01
    -24.460  0.4152E-12  0.1333E-01
    -24.358  0.3269E-11  0.1333E-01
    -24.257  0.2899E-09  0.1333E-01
    -24.156  0.1555E-07  0.1333E-01
    -24.054  0.5050E-06  0.1333E-01
    -23.953  0.9947E-05  0.1333E-01
    -23.852  0.1190E-03  0.1335E-01
    -23.750  0.8662E-03  0.1343E-01
    -23.649  0.3843E-02  0.1382E-01
    -23.547  0.1041E-01  0.1488E-01
    -23.446  0.1721E-01  0.1662E-01
    -23.345  0.1741E-01  0.1839E-01
    -23.243  0.1076E-01  0.1948E-01
    -23.142  0.4086E-02  0.1989E-01
    -23.041  0.1173E-02  0.2001E-01
    -22.939  0.1599E-02  0.2017E-01
    -22.838  0.5576E-02  0.2074E-01
    -22.737  0.1288E-01  0.2204E-01
    -22.635  0.1822E-01  0.2389E-01
    -22.534  0.1576E-01  0.2549E-01
    -22.432  0.8329E-02  0.2633E-01
    -22.331  0.2689E-02  0.2661E-01
    -22.230  0.5296E-03  0.2666E-01
    -22.128  0.6354E-04  0.2667E-01
    -22.027  0.4637E-05  0.2667E-01
    -21.926  0.2055E-06  0.2667E-01
    -21.824  0.5519E-08  0.2667E-01
    -21.723  0.8971E-10  0.2667E-01
    -21.622  0.8811E-12  0.2667E-01
    -21.520  0.5228E-14  0.2667E-01
    -21.419  0.1460E-16  0.2667E-01
    -21.317  0.0000E+00  0.2667E-01
    -21.216  0.0000E+00  0.2667E-01
    -21.115  0.0000E+00  0.2667E-01
    -21.013  0.0000E+00  0.2667E-01
    -20.912  0.0000E+00  0.2667E-01
    -20.811  0.0000E+00  0.2667E-01
    -20.709  0.7667E-16  0.2667E-01
    -20.608  0.1878E-13  0.2667E-01
    -20.507  0.2805E-11  0.2667E-01
    -20.405  0.2529E-09  0.2667E-01
    -20.304  0.1379E-07  0.2667E-01
    -20.202  0.4551E-06  0.2667E-01
    -20.101  0.9108E-05  0.2667E-01
    -20.000  0.1107E-03  0.2668E-01
    -19.898  0.8189E-03  0.2676E-01
    -19.797  0.3692E-02  0.2714E-01
    -19.696  0.1016E-01  0.2817E-01
    -19.594  0.1707E-01  0.2990E-01
    -19.493  0.1753E-01  0.3167E-01
    -19.392  0.1101E-01  0.3279E-01
    -19.290  0.4225E-02  0.3322E-01
    -19.189  0.9894E-03  0.3332E-01
    -19.087  0.1412E-03  0.3333E-01
    -18.986  0.1228E-04  0.3333E-01
    -18.885  0.1035E-05  0.3333E-01
    -18.783  0.7974E-05  0.3333E-01
    -18.682  0.9907E-04  0.3334E-01
    -18.581  0.7509E-03  0.3342E-01
    -18.479  0.3468E-02  0.3377E-01
    -18.378  0.9775E-02  0.3476E-01
    -18.277  0.1683E-01  0.3647E-01
    -18.175  0.1771E-01  0.3826E-01
    -18.074  0.1140E-01  0.3942E-01
    -17.973  0.4480E-02  0.3987E-01
    -17.871  0.1084E-02  0.3998E-01
    -17.770  0.2664E-03  0.4001E-01
    -17.668  0.8240E-03  0.4009E-01
    -17.567  0.3663E-02  0.4047E-01
    -17.466  0.1011E-01  0.4149E-01
    -17.364  0.1704E-01  0.4322E-01
    -17.263  0.1756E-01  0.4500E-01
    -17.162  0.1106E-01  0.4612E-01
    -17.060  0.4257E-02  0.4655E-01
    -16.959  0.1000E-02  0.4665E-01
    -16.858  0.1432E-03  0.4667E-01
    -16.756  0.1319E-04  0.4667E-01
    -16.655  0.1390E-04  0.4667E-01
    -16.553  0.1503E-03  0.4668E-01
    -16.452  0.1038E-02  0.4679E-01
    -16.351  0.4370E-02  0.4723E-01
    -16.249  0.1123E-01  0.4837E-01
    -16.148  0.1764E-01  0.5016E-01
    -16.047  0.1693E-01  0.5187E-01
    -15.945  0.9936E-02  0.5288E-01
    -15.844  0.3562E-02  0.5324E-01
    -15.743  0.7792E-03  0.5332E-01
    -15.641  0.1039E-03  0.5333E-01
    -15.540  0.8426E-05  0.5333E-01
    -15.438  0.4239E-06  0.5333E-01
    -15.337  0.3208E-06  0.5333E-01
    -15.236  0.6550E-05  0.5333E-01
    -15.134  0.8447E-04  0.5334E-01
    -15.033  0.6627E-03  0.5341E-01
    -14.932  0.3168E-02  0.5373E-01
    -14.830  0.9241E-02  0.5467E-01
    -14.729  0.1647E-01  0.5634E-01
    -14.628  0.1794E-01  0.5815E-01
    -14.526  0.1194E-01  0.5937E-01
    -14.425  0.4897E-02  0.5986E-01
    -14.323  0.1567E-02  0.6002E-01
    -14.222  0.2202E-02  0.6024E-01
    -14.121  0.6924E-02  0.6095E-01
    -14.019  0.1443E-01  0.6241E-01
    -13.918  0.1841E-01  0.6427E-01
    -13.817  0.1437E-01  0.6573E-01
    -13.715  0.6903E-02  0.6643E-01
    -13.614  0.2452E-02  0.6668E-01
    -13.513  0.2769E-02  0.6696E-01
    -13.411  0.7807E-02  0.6775E-01
    -13.310  0.1527E-01  0.6930E-01
    -13.208  0.1834E-01  0.7116E-01
    -13.107  0.1347E-01  0.7252E-01
    -13.006  0.6082E-02  0.7314E-01
    -12.904  0.2022E-02  0.7334E-01
    -12.803  0.2322E-02  0.7358E-01
    -12.702  0.6994E-02  0.7429E-01
    -12.600  0.1449E-01  0.7576E-01
    -12.499  0.1841E-01  0.7762E-01
    -12.398  0.1430E-01  0.7907E-01
    -12.296  0.6791E-02  0.7976E-01
    -12.195  0.1969E-02  0.7996E-01
    -12.093  0.3552E-03  0.8000E-01
    -11.992  0.1265E-03  0.8001E-01
    -11.891  0.6951E-03  0.8008E-01
    -11.789  0.3303E-02  0.8041E-01
    -11.688  0.9784E-02  0.8141E-01
    -11.587  0.1866E-01  0.8330E-01
    -11.485  0.2490E-01  0.8582E-01
    -11.384  0.2633E-01  0.8849E-01
    -11.283  0.2330E-01  0.9085E-01
    -11.181  0.1655E-01  0.9253E-01
    -11.080  0.1219E-01  0.9377E-01
    -10.978  0.1735E-01  0.9552E-01
    -10.877  0.2906E-01  0.9847E-01
    -10.776  0.3473E-01  0.1020E+00
    -10.674  0.2760E-01  0.1048E+00
    -10.573  0.1635E-01  0.1064E+00
    -10.472  0.1306E-01  0.1078E+00
    -10.370  0.1901E-01  0.1097E+00
    -10.269  0.2720E-01  0.1125E+00
    -10.168  0.3418E-01  0.1159E+00
    -10.066  0.4143E-01  0.1201E+00
     -9.965  0.4617E-01  0.1248E+00
     -9.863  0.4148E-01  0.1290E+00
     -9.762  0.2714E-01  0.1318E+00
     -9.661  0.1320E-01  0.1331E+00
     -9.559  0.8874E-02  0.1340E+00
     -9.458  0.1437E-01  0.1354E+00
     -9.357  0.2321E-01  0.1378E+00
     -9.255  0.2967E-01  0.1408E+00
     -9.154  0.3350E-01  0.1442E+00
     -9.053  0.3451E-01  0.1477E+00
     -8.951  0.3080E-01  0.1508E+00
     -8.850  0.2528E-01  0.1534E+00
     -8.748  0.2391E-01  0.1558E+00
     -8.647  0.2626E-01  0.1585E+00
     -8.546  0.2745E-01  0.1613E+00
     -8.444  0.2473E-01  0.1638E+00
     -8.343  0.1727E-01  0.1655E+00
     -8.242  0.8302E-02  0.1664E+00
     -8.140  0.2555E-02  0.1666E+00
     -8.039  0.4877E-03  0.1667E+00
     -7.938  0.5703E-04  0.1667E+00
     -7.836  0.4064E-05  0.1667E+00
     -7.735  0.1759E-06  0.1667E+00
     -7.633  0.4741E-08  0.1667E+00
     -7.532  0.7409E-08  0.1667E+00
     -7.431  0.2632E-06  0.1667E+00
     -7.329  0.5724E-05  0.1667E+00
     -7.228  0.7560E-04  0.1667E+00
     -7.127  0.6073E-03  0.1667E+00
     -7.025  0.2973E-02  0.1670E+00
     -6.924  0.8879E-02  0.1679E+00
     -6.823  0.1620E-01  0.1696E+00
     -6.721  0.1807E-01  0.1714E+00
     -6.620  0.1243E-01  0.1727E+00
     -6.519  0.6000E-02  0.1733E+00
     -6.417  0.5166E-02  0.1738E+00
     -6.316  0.1066E-01  0.1749E+00
     -6.214  0.1747E-01  0.1767E+00
     -6.113  0.1878E-01  0.1786E+00
     -6.012  0.1607E-01  0.1802E+00
     -5.910  0.1666E-01  0.1819E+00
     -5.809  0.1927E-01  0.1838E+00
     -5.708  0.1737E-01  0.1856E+00
     -5.606  0.1362E-01  0.1870E+00
     -5.505  0.1497E-01  0.1885E+00
     -5.404  0.1857E-01  0.1904E+00
     -5.302  0.1640E-01  0.1920E+00
     -5.201  0.9053E-02  0.1929E+00
     -5.099  0.3063E-02  0.1933E+00
     -4.998  0.6327E-03  0.1933E+00
     -4.897  0.7963E-04  0.1933E+00
     -4.795  0.6097E-05  0.1933E+00
     -4.694  0.2835E-06  0.1933E+00
     -4.593  0.7990E-08  0.1933E+00
     -4.491  0.1363E-09  0.1933E+00
     -4.390  0.1405E-11  0.1933E+00
     -4.289  0.8751E-14  0.1933E+00
     -4.187  0.2921E-16  0.1933E+00
     -4.086  0.0000E+00  0.1933E+00
     -3.984  0.0000E+00  0.1933E+00
     -3.883  0.0000E+00  0.1933E+00
     -3.782  0.0000E+00  0.1933E+00
     -3.680  0.0000E+00  0.1933E+00
     -3.579  0.0000E+00  0.1933E+00
     -3.478  0.0000E+00  0.1933E+00
     -3.376  0.0000E+00  0.1933E+00
     -3.275  0.0000E+00  0.1933E+00
     -3.174  0.0000E+00  0.1933E+00
     -3.072  0.0000E+00  0.1933E+00
     -2.971  0.0000E+00  0.1933E+00
     -2.869  0.0000E+00  0.1933E+00
     -2.768  0.0000E+00  0.1933E+00
     -2.667  0.0000E+00  0.1933E+00
     -2.565  0.0000E+00  0.1933E+00
     -2.464  0.0000E+00  0.1933E+00
     -2.363  0.3651E-17  0.1933E+00
     -2.261  0.6280E-15  0.1933E+00
     -2.160  0.1290E-12  0.1933E+00
     -2.059  0.1596E-10  0.1933E+00
     -1.957  0.1193E-08  0.1933E+00
     -1.856  0.5393E-07  0.1933E+00
     -1.754  0.1478E-05  0.1933E+00
     -1.653  0.2459E-04  0.1933E+00
     -1.552  0.2494E-03  0.1934E+00
     -1.450  0.1551E-02  0.1935E+00
     -1.349  0.5990E-02  0.1941E+00
     -1.248  0.1475E-01  0.1956E+00
     -1.146  0.2440E-01  0.1981E+00
     -1.045  0.2919E-01  0.2011E+00
     -0.944  0.2652E-01  0.2037E+00
     -0.842  0.1791E-01  0.2056E+00
     -0.741  0.9166E-02  0.2065E+00
     -0.639  0.7026E-02  0.2072E+00
     -0.538  0.1428E-01  0.2086E+00
     -0.437  0.2851E-01  0.2115E+00
     -0.335  0.4311E-01  0.2159E+00
     -0.234  0.5264E-01  0.2212E+00
     -0.133  0.5979E-01  0.2273E+00
     -0.031  0.7528E-01  0.2349E+00
      0.070  0.1010E+00  0.2452E+00
      0.171  0.1142E+00  0.2568E+00
      0.273  0.9235E-01  0.2661E+00
      0.374  0.4966E-01  0.2711E+00
      0.476  0.1722E-01  0.2729E+00
      0.577  0.3786E-02  0.2733E+00
      0.678  0.5226E-03  0.2733E+00
      0.780  0.4494E-04  0.2733E+00
      0.881  0.2392E-05  0.2733E+00
      0.982  0.7843E-07  0.2733E+00
      1.084  0.1576E-08  0.2733E+00
      1.185  0.1934E-10  0.2733E+00
      1.286  0.1445E-12  0.2733E+00
      1.388  0.6554E-15  0.2733E+00
      1.489  0.0000E+00  0.2733E+00
      1.591  0.0000E+00  0.2733E+00
      1.692  0.0000E+00  0.2733E+00
      1.793  0.0000E+00  0.2733E+00
      1.895  0.0000E+00  0.2733E+00
      1.996  0.0000E+00  0.2733E+00
      2.097  0.0000E+00  0.2733E+00
      2.199  0.0000E+00  0.2733E+00
