   22   22  300    1
  0.1227273E+04  0.3000000E-08  0.3000000E-08  0.3000000E-08  0.0000000E+00
  1.000000000000000E-004
  CAR 
 unknown system                          
     58      4     41
 
  0.2500000E+00  0.2500000E+00  0.2500000E+00  0.2500000E+00
    1      -26.210142   1.000000
    2      -25.519923   1.000000
    3      -23.443801   1.000000
    4      -22.665120   1.000000
    5      -19.588752   1.000000
    6      -18.266057   1.000000
    7      -17.358136   1.000000
    8      -16.156393   1.000000
    9      -14.711300   1.000000
   10      -13.969100   1.000000
   11      -13.272074   1.000000
   12      -12.550903   1.000000
   13      -11.571314   1.000000
   14      -11.335457   1.000000
   15      -10.883509   1.000000
   16      -10.783016   1.000000
   17      -10.338640   1.000000
   18      -10.125084   1.000000
   19       -9.979577   1.000000
   20       -9.895027   1.000000
   21       -9.382886   1.000000
   22       -9.167175   1.000000
   23       -9.004415   1.000000
   24       -8.705160   1.000000
   25       -8.478995   1.000000
   26       -6.800155   1.000000
   27       -6.212486   1.000000
   28       -5.835070   1.000000
   29       -5.423703   1.000000
   30       -1.178549   0.000000
   31       -0.982785   0.000000
   32       -0.438916   0.000000
   33       -0.298743   0.000000
   34       -0.211421   0.000000
   35       -0.056230   0.000000
   36        0.048229   0.000000
   37        0.111390   0.000000
   38        0.127959   0.000000
   39        0.138653   0.000000
   40        0.186019   0.000000
   41        0.198690   0.000000
 
 -0.2500000E+00  0.2500000E+00  0.2500000E+00  0.2500000E+00
    1      -26.210141   1.000000
    2      -25.519926   1.000000
    3      -23.443799   1.000000
    4      -22.665119   1.000000
    5      -19.588756   1.000000
    6      -18.266057   1.000000
    7      -17.358135   1.000000
    8      -16.156393   1.000000
    9      -14.711304   1.000000
   10      -13.969099   1.000000
   11      -13.272069   1.000000
   12      -12.550898   1.000000
   13      -11.571317   1.000000
   14      -11.335456   1.000000
   15      -10.883514   1.000000
   16      -10.783030   1.000000
   17      -10.338646   1.000000
   18      -10.125082   1.000000
   19       -9.979583   1.000000
   20       -9.895033   1.000000
   21       -9.382883   1.000000
   22       -9.167162   1.000000
   23       -9.004407   1.000000
   24       -8.705173   1.000000
   25       -8.478989   1.000000
   26       -6.800176   1.000000
   27       -6.212494   1.000000
   28       -5.835081   1.000000
   29       -5.423672   1.000000
   30       -1.178559   0.000000
   31       -0.982784   0.000000
   32       -0.438920   0.000000
   33       -0.298745   0.000000
   34       -0.211422   0.000000
   35       -0.056077   0.000000
   36        0.047211   0.000000
   37        0.108163   0.000000
   38        0.132147   0.000000
   39        0.143724   0.000000
   40        0.181852   0.000000
   41        0.197092   0.000000
 
  0.2500000E+00 -0.2500000E+00  0.2500000E+00  0.2500000E+00
    1      -26.210141   1.000000
    2      -25.519925   1.000000
    3      -23.443799   1.000000
    4      -22.665119   1.000000
    5      -19.588756   1.000000
    6      -18.266055   1.000000
    7      -17.358138   1.000000
    8      -16.156392   1.000000
    9      -14.711302   1.000000
   10      -13.969111   1.000000
   11      -13.272068   1.000000
   12      -12.550900   1.000000
   13      -11.571318   1.000000
   14      -11.335455   1.000000
   15      -10.883509   1.000000
   16      -10.783027   1.000000
   17      -10.338652   1.000000
   18      -10.125088   1.000000
   19       -9.979582   1.000000
   20       -9.895027   1.000000
   21       -9.382894   1.000000
   22       -9.167164   1.000000
   23       -9.004423   1.000000
   24       -8.705157   1.000000
   25       -8.478993   1.000000
   26       -6.800157   1.000000
   27       -6.212489   1.000000
   28       -5.835077   1.000000
   29       -5.423697   1.000000
   30       -1.178559   0.000000
   31       -0.982787   0.000000
   32       -0.438911   0.000000
   33       -0.298740   0.000000
   34       -0.211422   0.000000
   35       -0.056017   0.000000
   36        0.044996   0.000000
   37        0.115470   0.000000
   38        0.124766   0.000000
   39        0.147940   0.000000
   40        0.183329   0.000000
   41        0.197291   0.000000
 
 -0.2500000E+00 -0.2500000E+00  0.2500000E+00  0.2500000E+00
    1      -26.210143   1.000000
    2      -25.519926   1.000000
    3      -23.443798   1.000000
    4      -22.665122   1.000000
    5      -19.588755   1.000000
    6      -18.266058   1.000000
    7      -17.358136   1.000000
    8      -16.156391   1.000000
    9      -14.711301   1.000000
   10      -13.969100   1.000000
   11      -13.272069   1.000000
   12      -12.550905   1.000000
   13      -11.571314   1.000000
   14      -11.335467   1.000000
   15      -10.883514   1.000000
   16      -10.783027   1.000000
   17      -10.338643   1.000000
   18      -10.125080   1.000000
   19       -9.979577   1.000000
   20       -9.895029   1.000000
   21       -9.382891   1.000000
   22       -9.167171   1.000000
   23       -9.004423   1.000000
   24       -8.705172   1.000000
   25       -8.478997   1.000000
   26       -6.800149   1.000000
   27       -6.212490   1.000000
   28       -5.835080   1.000000
   29       -5.423697   1.000000
   30       -1.178549   0.000000
   31       -0.982785   0.000000
   32       -0.438924   0.000000
   33       -0.298742   0.000000
   34       -0.211431   0.000000
   35       -0.055964   0.000000
   36        0.044914   0.000000
   37        0.119882   0.000000
   38        0.132319   0.000000
   39        0.135017   0.000000
   40        0.177005   0.000000
   41        0.194003   0.000000
