       N       E                     dE             d eps       ncg     rms          rms(c)
DAV:   1     0.579598191744E+03    0.57960E+03   -0.82721E+03   408   0.485E+02
DAV:   2     0.249970039409E+03   -0.32963E+03   -0.31980E+03   572   0.986E+01
DAV:   3    -0.516268314980E+02   -0.30160E+03   -0.29206E+03   496   0.106E+02
DAV:   4    -0.137302673743E+03   -0.85676E+02   -0.85557E+02   397   0.777E+01
DAV:   5    -0.141866833940E+03   -0.45642E+01   -0.45537E+01   464   0.211E+01    0.196E+01
DAV:   6    -0.131712076864E+03    0.10155E+02   -0.23847E+01   432   0.199E+01    0.997E+00
DAV:   7    -0.129966651426E+03    0.17454E+01   -0.45922E+00   424   0.831E+00    0.516E+00
DAV:   8    -0.129476777896E+03    0.48987E+00   -0.84411E-01   432   0.404E+00    0.155E+00
DAV:   9    -0.129408123696E+03    0.68654E-01   -0.10405E-01   464   0.155E+00    0.570E-01
DAV:  10    -0.129397160623E+03    0.10963E-01   -0.25064E-02   416   0.821E-01    0.258E-01
DAV:  11    -0.129391880281E+03    0.52803E-02   -0.81192E-03   440   0.450E-01    0.163E-01
DAV:  12    -0.129392847600E+03   -0.96732E-03   -0.58036E-03   384   0.360E-01    0.984E-02
DAV:  13    -0.129399226895E+03   -0.63793E-02   -0.45231E-03   400   0.319E-01    0.594E-02
DAV:  14    -0.129405735785E+03   -0.65089E-02   -0.18342E-03   392   0.203E-01    0.393E-02
DAV:  15    -0.129413342018E+03   -0.76062E-02   -0.80970E-04   430   0.106E-01    0.248E-02
DAV:  16    -0.129419529980E+03   -0.61880E-02   -0.48791E-04   334   0.717E-02    0.140E-02
DAV:  17    -0.129422295262E+03   -0.27653E-02   -0.13553E-04   336   0.386E-02    0.939E-03
DAV:  18    -0.129424294618E+03   -0.19994E-02   -0.13931E-04   268   0.331E-02    0.555E-03
DAV:  19    -0.129425233164E+03   -0.93855E-03   -0.58264E-05   328   0.206E-02    0.347E-03
DAV:  20    -0.129425706031E+03   -0.47287E-03   -0.20259E-05   278   0.147E-02    0.207E-03
DAV:  21    -0.129425916235E+03   -0.21020E-03   -0.86579E-06   360   0.840E-03    0.130E-03
DAV:  22    -0.129426074090E+03   -0.15786E-03   -0.45305E-06   244   0.680E-03    0.101E-03
DAV:  23    -0.129426119075E+03   -0.44985E-04   -0.11830E-06   368   0.372E-03
   1 F= -.12942612E+03 E0= -.12942612E+03  d E =-.129426E+03
       N       E                     dE             d eps       ncg     rms          rms(c)
DAV:   1    -0.129426239598E+03   -0.16551E-03   -0.33848E-03   332   0.298E-01    0.136E-02
DAV:   2    -0.129426248904E+03   -0.93061E-05   -0.54347E-05   368   0.378E-02    0.876E-03
DAV:   3    -0.129426255109E+03   -0.62046E-05   -0.56174E-06   224   0.132E-02    0.403E-03
DAV:   4    -0.129426262106E+03   -0.69966E-05   -0.19134E-06   262   0.710E-03    0.981E-04
DAV:   5    -0.129426265579E+03   -0.34735E-05   -0.33267E-07   272   0.319E-03    0.460E-04
DAV:   6    -0.129426268022E+03   -0.24432E-05   -0.82607E-08   270   0.152E-03
   2 F= -.12942627E+03 E0= -.12942627E+03  d E =-.148948E-03
       N       E                     dE             d eps       ncg     rms          rms(c)
DAV:   1    -0.129426392045E+03   -0.12647E-03   -0.10624E-02   398   0.516E-01    0.242E-02
DAV:   2    -0.129426400851E+03   -0.88057E-05   -0.14522E-04   278   0.617E-02    0.155E-02
DAV:   3    -0.129426402960E+03   -0.21094E-05   -0.16544E-05   293   0.221E-02    0.640E-03
DAV:   4    -0.129426405064E+03   -0.21041E-05   -0.45235E-06   246   0.107E-02    0.152E-03
DAV:   5    -0.129426405661E+03   -0.59662E-06   -0.81764E-07   236   0.493E-03    0.840E-04
DAV:   6    -0.129426406326E+03   -0.66457E-06   -0.23077E-07   238   0.270E-03
   3 F= -.12942641E+03 E0= -.12942641E+03  d E =-.138303E-03
       N       E                     dE             d eps       ncg     rms          rms(c)
DAV:   1    -0.129426584730E+03   -0.17907E-03   -0.21406E-02   330   0.724E-01    0.347E-02
DAV:   2    -0.129426600761E+03   -0.16031E-04   -0.29530E-04   339   0.831E-02    0.227E-02
DAV:   3    -0.129426601202E+03   -0.44072E-06   -0.15381E-05   237   0.220E-02    0.101E-02
DAV:   4    -0.129426603959E+03   -0.27573E-05   -0.10247E-05   277   0.146E-02    0.247E-03
DAV:   5    -0.129426604022E+03   -0.63295E-07   -0.17006E-06   248   0.703E-03    0.140E-03
DAV:   6    -0.129426604202E+03   -0.17979E-06   -0.27498E-07   209   0.293E-03
   4 F= -.12942660E+03 E0= -.12942660E+03  d E =-.197876E-03
       N       E                     dE             d eps       ncg     rms          rms(c)
DAV:   1    -0.129426824840E+03   -0.22082E-03   -0.38245E-02   333   0.971E-01    0.466E-02
DAV:   2    -0.129426855859E+03   -0.31019E-04   -0.55343E-04   403   0.112E-01    0.307E-02
DAV:   3    -0.129426854940E+03    0.91899E-06   -0.21133E-05   277   0.261E-02    0.142E-02
DAV:   4    -0.129426859593E+03   -0.46526E-05   -0.14918E-05   288   0.180E-02    0.276E-03
DAV:   5    -0.129426859676E+03   -0.83453E-07   -0.25312E-06   272   0.831E-03    0.169E-03
DAV:   6    -0.129426859803E+03   -0.12657E-06   -0.36894E-07   240   0.341E-03
   5 F= -.12942686E+03 E0= -.12942686E+03  d E =-.255601E-03
       N       E                     dE             d eps       ncg     rms          rms(c)
DAV:   1    -0.129427097980E+03   -0.23830E-03   -0.59500E-02   330   0.121E+00    0.582E-02
DAV:   2    -0.129427145432E+03   -0.47452E-04   -0.84778E-04   395   0.139E-01    0.382E-02
DAV:   3    -0.129427144648E+03    0.78381E-06   -0.31279E-05   257   0.319E-02    0.174E-02
DAV:   4    -0.129427151591E+03   -0.69430E-05   -0.21655E-05   246   0.217E-02    0.325E-03
DAV:   5    -0.129427151758E+03   -0.16718E-06   -0.40086E-06   246   0.103E-02    0.194E-03
DAV:   6    -0.129427151945E+03   -0.18718E-06   -0.58158E-07   269   0.405E-03
   6 F= -.12942715E+03 E0= -.12942715E+03  d E =-.292142E-03
       N       E                     dE             d eps       ncg     rms          rms(c)
DAV:   1    -0.129427409605E+03   -0.25785E-03   -0.88862E-02   330   0.148E+00    0.707E-02
DAV:   2    -0.129427481187E+03   -0.71582E-04   -0.12565E-03   387   0.169E-01    0.464E-02
DAV:   3    -0.129427479858E+03    0.13289E-05   -0.43158E-05   257   0.379E-02    0.210E-02
DAV:   4    -0.129427490013E+03   -0.10155E-04   -0.31792E-05   236   0.263E-02    0.379E-03
DAV:   5    -0.129427490301E+03   -0.28798E-06   -0.59348E-06   236   0.124E-02    0.230E-03
DAV:   6    -0.129427490563E+03   -0.26201E-06   -0.80385E-07   252   0.464E-03
   7 F= -.12942749E+03 E0= -.12942749E+03  d E =-.338618E-03
       N       E                     dE             d eps       ncg     rms          rms(c)
DAV:   1    -0.129427746427E+03   -0.25613E-03   -0.15780E-01   328   0.197E+00    0.938E-02
DAV:   2    -0.129427873735E+03   -0.12731E-03   -0.21961E-03   379   0.223E-01    0.614E-02
DAV:   3    -0.129427868941E+03    0.47942E-05   -0.75384E-05   248   0.503E-02    0.276E-02
DAV:   4    -0.129427886348E+03   -0.17406E-04   -0.58061E-05   268   0.351E-02    0.515E-03
DAV:   5    -0.129427886575E+03   -0.22697E-06   -0.10002E-05   236   0.161E-02    0.313E-03
DAV:   6    -0.129427886884E+03   -0.30913E-06   -0.13114E-06   254   0.592E-03
   8 F= -.12942789E+03 E0= -.12942789E+03  d E =-.396321E-03
       N       E                     dE             d eps       ncg     rms          rms(c)
DAV:   1    -0.129428122885E+03   -0.23631E-03   -0.27250E-01   328   0.258E+00    0.123E-01
DAV:   2    -0.129428346134E+03   -0.22325E-03   -0.37890E-03   395   0.293E-01    0.807E-02
DAV:   3    -0.129428334811E+03    0.11323E-04   -0.13533E-04   280   0.663E-02    0.365E-02
DAV:   4    -0.129428363425E+03   -0.28614E-04   -0.10017E-04   300   0.461E-02    0.650E-03
DAV:   5    -0.129428363805E+03   -0.37989E-06   -0.16195E-05   220   0.201E-02    0.418E-03
DAV:   6    -0.129428364212E+03   -0.40758E-06   -0.22267E-06   235   0.778E-03
   9 F= -.12942836E+03 E0= -.12942836E+03  d E =-.477329E-03
       N       E                     dE             d eps       ncg     rms          rms(c)
DAV:   1    -0.129428479246E+03   -0.11544E-03   -0.45976E-01   329   0.335E+00    0.161E-01
DAV:   2    -0.129428867774E+03   -0.38853E-03   -0.64677E-03   396   0.383E-01    0.105E-01
DAV:   3    -0.129428848500E+03    0.19274E-04   -0.24167E-04   320   0.853E-02    0.476E-02
DAV:   4    -0.129428894330E+03   -0.45830E-04   -0.13206E-04   300   0.552E-02    0.792E-03
DAV:   5    -0.129428894796E+03   -0.46589E-06   -0.21646E-05   236   0.235E-02    0.509E-03
DAV:   6    -0.129428895336E+03   -0.53999E-06   -0.28695E-06   255   0.905E-03
  10 F= -.12942890E+03 E0= -.12942890E+03  d E =-.531124E-03
       N       E                     dE             d eps       ncg     rms          rms(c)
DAV:   1    -0.129428821560E+03    0.73235E-04   -0.77169E-01   328   0.434E+00    0.207E-01
DAV:   2    -0.129429476335E+03   -0.65477E-03   -0.10687E-02   396   0.491E-01    0.135E-01
DAV:   3    -0.129429440216E+03    0.36119E-04   -0.39625E-04   352   0.108E-01    0.604E-02
DAV:   4    -0.129429512110E+03   -0.71894E-04   -0.19882E-04   332   0.671E-02    0.101E-02
DAV:   5    -0.129429511752E+03    0.35751E-06   -0.26793E-05   236   0.261E-02    0.635E-03
DAV:   6    -0.129429512552E+03   -0.79925E-06   -0.45709E-06   262   0.111E-02
  11 F= -.12942951E+03 E0= -.12942951E+03  d E =-.617216E-03
       N       E                     dE             d eps       ncg     rms          rms(c)
DAV:   1    -0.129429008713E+03    0.50304E-03   -0.12598E+00   328   0.555E+00    0.262E-01
DAV:   2    -0.129430110302E+03   -0.11016E-02   -0.17569E-02   396   0.630E-01    0.170E-01
DAV:   3    -0.129430038073E+03    0.72229E-04   -0.65130E-04   354   0.138E-01    0.769E-02
DAV:   4    -0.129430148661E+03   -0.11059E-03   -0.33784E-04   396   0.865E-02    0.134E-02
DAV:   5    -0.129430147322E+03    0.13394E-05   -0.38954E-05   236   0.315E-02    0.834E-03
DAV:   6    -0.129430148781E+03   -0.14591E-05   -0.77768E-06   293   0.139E-02
  12 F= -.12943015E+03 E0= -.12943015E+03  d E =-.636229E-03
       N       E                     dE             d eps       ncg     rms          rms(c)
DAV:   1    -0.129428984888E+03    0.11624E-02   -0.18120E+00   328   0.668E+00    0.317E-01
DAV:   2    -0.129430644146E+03   -0.16593E-02   -0.26346E-02   396   0.769E-01    0.207E-01
DAV:   3    -0.129430524914E+03    0.11923E-03   -0.92930E-04   395   0.168E-01    0.995E-02
DAV:   4    -0.129430683409E+03   -0.15849E-03   -0.53540E-04   396   0.109E-01    0.164E-02
DAV:   5    -0.129430682114E+03    0.12949E-05   -0.64634E-05   246   0.409E-02    0.104E-02
DAV:   6    -0.129430683484E+03   -0.13705E-05   -0.10349E-05   272   0.162E-02
  13 F= -.12943068E+03 E0= -.12943068E+03  d E =-.534703E-03
       N       E                     dE             d eps       ncg     rms          rms(c)
DAV:   1    -0.129424646837E+03    0.60353E-02   -0.27705E+00   328   0.842E+00    0.377E-01
DAV:   2    -0.129427832775E+03   -0.31859E-02   -0.48478E-02   388   0.105E+00    0.245E-01
DAV:   3    -0.129427500482E+03    0.33229E-03   -0.14191E-03   398   0.207E-01    0.123E-01
DAV:   4    -0.129427649036E+03   -0.14855E-03   -0.91401E-04   414   0.154E-01    0.198E-02
DAV:   5    -0.129427656128E+03   -0.70913E-05   -0.13786E-04   368   0.593E-02    0.152E-02
DAV:   6    -0.129427661682E+03   -0.55546E-05   -0.13724E-05   306   0.184E-02
  14 F= -.12942766E+03 E0= -.12942766E+03  d E =0.302180E-02
       N       E                     dE             d eps       ncg     rms          rms(c)
DAV:   1    -0.129430870391E+03   -0.32143E-02   -0.32552E-01   334   0.298E+00    0.152E-01
DAV:   2    -0.129431664546E+03   -0.79416E-03   -0.12881E-02   369   0.528E-01    0.106E-01
DAV:   3    -0.129431567351E+03    0.97195E-04   -0.36419E-04   422   0.999E-02    0.678E-02
DAV:   4    -0.129431507869E+03    0.59483E-04   -0.34857E-04   328   0.985E-02    0.145E-02
DAV:   5    -0.129431506974E+03    0.89429E-06   -0.62815E-05   368   0.393E-02    0.836E-03
DAV:   6    -0.129431507696E+03   -0.72187E-06   -0.69625E-06   280   0.135E-02
  15 F= -.12943151E+03 E0= -.12943151E+03  d E =-.384601E-02
       N       E                     dE             d eps       ncg     rms          rms(c)
DAV:   1    -0.129431595176E+03   -0.88201E-04   -0.13343E-03   385   0.187E-01    0.124E-02
DAV:   2    -0.129431601050E+03   -0.58748E-05   -0.46012E-05   304   0.319E-02    0.710E-03
DAV:   3    -0.129431603852E+03   -0.28014E-05   -0.46516E-06   238   0.108E-02    0.356E-03
DAV:   4    -0.129431607413E+03   -0.35616E-05   -0.97700E-07   294   0.499E-03    0.116E-03
DAV:   5    -0.129431610040E+03   -0.26272E-05   -0.32239E-07   254   0.246E-03    0.434E-04
DAV:   6    -0.129431612263E+03   -0.22230E-05   -0.11659E-07   250   0.138E-03
  16 F= -.12943161E+03 E0= -.12943161E+03  d E =-.104567E-03
       N       E                     dE             d eps       ncg     rms          rms(c)
DAV:   1    -0.129431685590E+03   -0.75549E-04   -0.40082E-03   350   0.327E-01    0.199E-02
DAV:   2    -0.129431697896E+03   -0.12306E-04   -0.15909E-04   321   0.568E-02    0.117E-02
DAV:   3    -0.129431697767E+03    0.12875E-06   -0.78697E-06   253   0.143E-02    0.690E-03
DAV:   4    -0.129431698814E+03   -0.10468E-05   -0.45046E-06   233   0.105E-02    0.162E-03
DAV:   5    -0.129431699465E+03   -0.65092E-06   -0.10171E-06   296   0.513E-03    0.829E-04
DAV:   6    -0.129431699809E+03   -0.34423E-06   -0.16198E-07   238   0.207E-03
  17 F= -.12943170E+03 E0= -.12943170E+03  d E =-.875455E-04
       N       E                     dE             d eps       ncg     rms          rms(c)
DAV:   1    -0.129431685804E+03    0.13660E-04   -0.53299E-03   353   0.380E-01    0.213E-02
DAV:   2    -0.129431698160E+03   -0.12356E-04   -0.18759E-04   308   0.625E-02    0.130E-02
DAV:   3    -0.129431696391E+03    0.17692E-05   -0.94619E-06   256   0.157E-02    0.769E-03
DAV:   4    -0.129431695066E+03    0.13253E-05   -0.54729E-06   232   0.117E-02    0.181E-03
DAV:   5    -0.129431695029E+03    0.36528E-07   -0.11818E-06   272   0.575E-03    0.909E-04
DAV:   6    -0.129431695213E+03   -0.18411E-06   -0.21015E-07   204   0.235E-03
  18 F= -.12943170E+03 E0= -.12943170E+03  d E =0.459569E-05
       N       E                     dE             d eps       ncg     rms          rms(c)
DAV:   1    -0.129431656626E+03    0.38403E-04   -0.47325E-03   381   0.357E-01    0.171E-02
DAV:   2    -0.129431663372E+03   -0.67459E-05   -0.10784E-04   287   0.504E-02    0.106E-02
DAV:   3    -0.129431663255E+03    0.11739E-06   -0.89109E-06   202   0.144E-02    0.604E-03
DAV:   4    -0.129431663627E+03   -0.37272E-06   -0.38107E-06   270   0.982E-03    0.129E-03
DAV:   5    -0.129431663945E+03   -0.31774E-06   -0.97712E-07   202   0.488E-03    0.741E-04
DAV:   6    -0.129431664263E+03   -0.31776E-06   -0.25550E-07   201   0.214E-03
  19 F= -.12943166E+03 E0= -.12943166E+03  d E =0.309505E-04
       N       E                     dE             d eps       ncg     rms          rms(c)
DAV:   1    -0.129431691445E+03   -0.27500E-04   -0.49187E-03   371   0.359E-01    0.154E-02
DAV:   2    -0.129431696326E+03   -0.48807E-05   -0.72570E-05   217   0.429E-02    0.961E-03
DAV:   3    -0.129431697665E+03   -0.13392E-05   -0.84780E-06   261   0.150E-02    0.431E-03
DAV:   4    -0.129431698747E+03   -0.10816E-05   -0.23805E-06   210   0.748E-03    0.901E-04
DAV:   5    -0.129431699148E+03   -0.40105E-06   -0.60749E-07   256   0.362E-03    0.454E-04
DAV:   6    -0.129431699502E+03   -0.35440E-06   -0.18723E-07   216   0.183E-03
  20 F= -.12943170E+03 E0= -.12943170E+03  d E =-.352395E-04
       N       E                     dE             d eps       ncg     rms          rms(c)
DAV:   1    -0.129431771659E+03   -0.72511E-04   -0.70577E-03   368   0.437E-01    0.197E-02
DAV:   2    -0.129431781734E+03   -0.10076E-04   -0.14750E-04   266   0.589E-02    0.126E-02
DAV:   3    -0.129431782150E+03   -0.41603E-06   -0.12497E-05   246   0.166E-02    0.664E-03
DAV:   4    -0.129431782915E+03   -0.76447E-06   -0.61694E-06   242   0.109E-02    0.173E-03
DAV:   5    -0.129431782922E+03   -0.73637E-08   -0.11300E-06   272   0.562E-03    0.909E-04
DAV:   6    -0.129431782963E+03   -0.40320E-07   -0.18208E-07   224   0.224E-03
  21 F= -.12943178E+03 E0= -.12943178E+03  d E =-.834604E-04
       N       E                     dE             d eps       ncg     rms          rms(c)
DAV:   1    -0.129431806179E+03   -0.23257E-04   -0.11465E-02   343   0.561E-01    0.266E-02
DAV:   2    -0.129431827323E+03   -0.21144E-04   -0.30693E-04   316   0.808E-02    0.174E-02
DAV:   3    -0.129431825088E+03    0.22356E-05   -0.10272E-05   272   0.179E-02    0.995E-03
DAV:   4    -0.129431824725E+03    0.36220E-06   -0.90529E-06   240   0.152E-02    0.213E-03
DAV:   5    -0.129431824703E+03    0.22860E-07   -0.16687E-06   272   0.706E-03    0.117E-03
DAV:   6    -0.129431824809E+03   -0.10677E-06   -0.23372E-07   202   0.260E-03
  22 F= -.12943182E+03 E0= -.12943182E+03  d E =-.418467E-04
       N       E                     dE             d eps       ncg     rms          rms(c)
DAV:   1    -0.129431819814E+03    0.48889E-05   -0.11564E-02   342   0.559E-01    0.237E-02
DAV:   2    -0.129431836339E+03   -0.16526E-04   -0.23542E-04   298   0.727E-02    0.154E-02
DAV:   3    -0.129431836390E+03   -0.50783E-07   -0.12442E-05   200   0.180E-02    0.840E-03
DAV:   4    -0.129431837749E+03   -0.13592E-05   -0.59122E-06   261   0.128E-02    0.153E-03
DAV:   5    -0.129431838054E+03   -0.30499E-06   -0.14094E-06   200   0.586E-03    0.963E-04
DAV:   6    -0.129431838400E+03   -0.34595E-06   -0.32107E-07   211   0.249E-03
  23 F= -.12943184E+03 E0= -.12943184E+03  d E =-.135910E-04
       N       E                     dE             d eps       ncg     rms          rms(c)
DAV:   1    -0.129431851242E+03   -0.13188E-04   -0.49896E-05   253   0.367E-02    0.213E-03
DAV:   2    -0.129431851874E+03   -0.63173E-06   -0.36680E-06   208   0.102E-02    0.126E-03
DAV:   3    -0.129431852221E+03   -0.34658E-06   -0.42002E-07   219   0.306E-03    0.855E-04
DAV:   4    -0.129431852781E+03   -0.56053E-06   -0.10131E-07   236   0.169E-03    0.252E-04
DAV:   5    -0.129431853116E+03   -0.33447E-06   -0.93246E-09   256   0.844E-04    0.143E-04
DAV:   6    -0.129431853425E+03   -0.30926E-06    0.22832E-08   216   0.542E-04
  24 F= -.12943185E+03 E0= -.12943185E+03  d E =-.150246E-04
       N       E                     dE             d eps       ncg     rms          rms(c)
DAV:   1    -0.129431873015E+03   -0.19899E-04   -0.18503E-04   296   0.697E-02    0.409E-03
DAV:   2    -0.129431873789E+03   -0.77431E-06   -0.92261E-06   232   0.153E-02    0.237E-03
DAV:   3    -0.129431873949E+03   -0.15997E-06   -0.92441E-07   264   0.492E-03    0.142E-03
DAV:   4    -0.129431874130E+03   -0.18099E-06   -0.22489E-07   208   0.256E-03    0.383E-04
DAV:   5    -0.129431874227E+03   -0.96819E-07   -0.34753E-08   264   0.125E-03    0.196E-04
DAV:   6    -0.129431874305E+03   -0.77478E-07    0.16183E-08   202   0.635E-04
  25 F= -.12943187E+03 E0= -.12943187E+03  d E =-.208798E-04
       N       E                     dE             d eps       ncg     rms          rms(c)
DAV:   1    -0.129431893012E+03   -0.18785E-04   -0.34477E-04   359   0.951E-02    0.549E-03
DAV:   2    -0.129431893919E+03   -0.90727E-06   -0.15228E-05   222   0.184E-02    0.320E-03
DAV:   3    -0.129431893861E+03    0.58623E-07   -0.15749E-06   236   0.616E-03    0.186E-03
DAV:   4    -0.129431893703E+03    0.15728E-06   -0.40561E-07   228   0.322E-03    0.516E-04
DAV:   5    -0.129431893679E+03    0.24105E-07   -0.82458E-08   222   0.165E-03    0.253E-04
DAV:   6    -0.129431893702E+03   -0.22970E-07    0.20260E-09   175   0.816E-04
  26 F= -.12943189E+03 E0= -.12943189E+03  d E =-.193975E-04
       N       E                     dE             d eps       ncg     rms          rms(c)
DAV:   1    -0.129431905440E+03   -0.11761E-04   -0.46006E-04   344   0.110E-01    0.710E-03
DAV:   2    -0.129431906320E+03   -0.88052E-06   -0.17462E-05   218   0.194E-02    0.375E-03
DAV:   3    -0.129431906132E+03    0.18861E-06   -0.18811E-06   248   0.663E-03    0.194E-03
DAV:   4    -0.129431905929E+03    0.20271E-06   -0.45912E-07   216   0.330E-03    0.620E-04
DAV:   5    -0.129431905904E+03    0.24953E-07   -0.10978E-07   219   0.180E-03    0.258E-04
DAV:   6    -0.129431905965E+03   -0.61230E-07   -0.75204E-09   166   0.889E-04
  27 F= -.12943191E+03 E0= -.12943191E+03  d E =-.122631E-04
       N       E                     dE             d eps       ncg     rms          rms(c)
DAV:   1    -0.129431909541E+03   -0.36369E-05   -0.45181E-04   328   0.110E-01    0.661E-03
DAV:   2    -0.129431910405E+03   -0.86400E-06   -0.16297E-05   200   0.189E-02    0.356E-03
DAV:   3    -0.129431910268E+03    0.13715E-06   -0.17247E-06   173   0.639E-03    0.186E-03
DAV:   4    -0.129431910144E+03    0.12430E-06   -0.41752E-07   201   0.319E-03    0.589E-04
DAV:   5    -0.129431910179E+03   -0.35874E-07   -0.98831E-08   164   0.174E-03    0.244E-04
DAV:   6    -0.129431910272E+03   -0.92413E-07   -0.46633E-09   166   0.860E-04
  28 F= -.12943191E+03 E0= -.12943191E+03  d E =-.430654E-05
       N       E                     dE             d eps       ncg     rms          rms(c)
DAV:   1    -0.129431910841E+03   -0.66161E-06   -0.33212E-04   264   0.959E-02    0.450E-03
DAV:   2    -0.129431911812E+03   -0.97095E-06   -0.14011E-05   165   0.197E-02    0.267E-03
DAV:   3    -0.129431911844E+03   -0.32206E-07   -0.13751E-06   164   0.624E-03    0.164E-03
DAV:   4    -0.129431911849E+03   -0.51687E-08   -0.32353E-07   164   0.315E-03    0.420E-04
DAV:   5    -0.129431911920E+03   -0.70776E-07   -0.62215E-08   164   0.153E-03    0.238E-04
DAV:   6    -0.129431912020E+03   -0.99833E-07    0.67980E-09   165   0.780E-04
  29 F= -.12943191E+03 E0= -.12943191E+03  d E =-.174813E-05
       N       E                     dE             d eps       ncg     rms          rms(c)
DAV:   1    -0.129431917582E+03   -0.56623E-05   -0.28098E-04   265   0.883E-02    0.337E-03
DAV:   2    -0.129431918370E+03   -0.78806E-06   -0.96862E-06   164   0.168E-02    0.204E-03
DAV:   3    -0.129431918470E+03   -0.99345E-07   -0.90006E-07   164   0.531E-03    0.128E-03
DAV:   4    -0.129431918591E+03   -0.12111E-06   -0.19003E-07   188   0.261E-03    0.268E-04
DAV:   5    -0.129431918667E+03   -0.76182E-07   -0.30339E-08   200   0.126E-03    0.181E-04
DAV:   6    -0.129431918753E+03   -0.85448E-07    0.14785E-08   172   0.622E-04
  30 F= -.12943192E+03 E0= -.12943192E+03  d E =-.673257E-05
       N       E                     dE             d eps       ncg     rms          rms(c)
DAV:   1    -0.129431934893E+03   -0.16226E-04   -0.32115E-04   296   0.939E-02    0.333E-03
DAV:   2    -0.129431935803E+03   -0.90927E-06   -0.10228E-05   208   0.173E-02    0.207E-03
DAV:   3    -0.129431935931E+03   -0.12838E-06   -0.94183E-07   164   0.543E-03    0.135E-03
DAV:   4    -0.129431936077E+03   -0.14579E-06   -0.20987E-07   238   0.275E-03    0.298E-04
DAV:   5    -0.129431936116E+03   -0.39092E-07   -0.43953E-08   166   0.136E-03    0.189E-04
DAV:   6    -0.129431936143E+03   -0.27220E-07    0.82512E-09   164   0.654E-04
  31 F= -.12943194E+03 E0= -.12943194E+03  d E =-.173907E-04
       N       E                     dE             d eps       ncg     rms          rms(c)
DAV:   1    -0.129431962336E+03   -0.26220E-04   -0.55811E-04   260   0.125E-01    0.479E-03
DAV:   2    -0.129431963649E+03   -0.13122E-05   -0.16736E-05   240   0.204E-02    0.332E-03
DAV:   3    -0.129431963730E+03   -0.81180E-07   -0.16926E-06   216   0.672E-03    0.223E-03
DAV:   4    -0.129431963787E+03   -0.57675E-07   -0.50312E-07   240   0.393E-03    0.614E-04
DAV:   5    -0.129431963786E+03    0.12342E-08   -0.12328E-07   191   0.198E-03    0.300E-04
DAV:   6    -0.129431963796E+03   -0.10071E-07   -0.16561E-08   164   0.982E-04
  32 F= -.12943196E+03 E0= -.12943196E+03  d E =-.276530E-04
       N       E                     dE             d eps       ncg     rms          rms(c)
DAV:   1    -0.129431991090E+03   -0.27304E-04   -0.10069E-03   296   0.169E-01    0.745E-03
DAV:   2    -0.129431993202E+03   -0.21117E-05   -0.29679E-05   237   0.261E-02    0.491E-03
DAV:   3    -0.129431993185E+03    0.16969E-07   -0.30112E-06   272   0.856E-03    0.299E-03
DAV:   4    -0.129431993132E+03    0.52393E-07   -0.89638E-07   201   0.484E-03    0.831E-04
DAV:   5    -0.129431993101E+03    0.31660E-07   -0.22791E-07   189   0.248E-03    0.352E-04
DAV:   6    -0.129431993122E+03   -0.21301E-07   -0.38036E-08   166   0.121E-03
  33 F= -.12943199E+03 E0= -.12943199E+03  d E =-.293256E-04
       N       E                     dE             d eps       ncg     rms          rms(c)
DAV:   1    -0.129432013670E+03   -0.20569E-04   -0.14646E-03   328   0.203E-01    0.845E-03
DAV:   2    -0.129432016609E+03   -0.29386E-05   -0.40843E-05   210   0.305E-02    0.561E-03
DAV:   3    -0.129432016613E+03   -0.41391E-08   -0.39974E-06   228   0.987E-03    0.345E-03
DAV:   4    -0.129432016625E+03   -0.11920E-07   -0.11957E-06   218   0.559E-03    0.939E-04
DAV:   5    -0.129432016626E+03   -0.13010E-08   -0.32180E-07   164   0.286E-03    0.407E-04
DAV:   6    -0.129432016682E+03   -0.56077E-07   -0.67407E-08   164   0.139E-03
  34 F= -.12943202E+03 E0= -.12943202E+03  d E =-.235602E-04
       N       E                     dE             d eps       ncg     rms          rms(c)
DAV:   1    -0.129432040921E+03   -0.24295E-04   -0.18108E-03   330   0.221E-01    0.788E-03
DAV:   2    -0.129432044173E+03   -0.32518E-05   -0.42037E-05   200   0.300E-02    0.525E-03
DAV:   3    -0.129432044361E+03   -0.18844E-06   -0.36833E-06   164   0.944E-03    0.326E-03
DAV:   4    -0.129432044749E+03   -0.38796E-06   -0.10427E-06   197   0.533E-03    0.766E-04
DAV:   5    -0.129432044845E+03   -0.96436E-07   -0.31194E-07   164   0.268E-03    0.391E-04
DAV:   6    -0.129432044936E+03   -0.90981E-07   -0.72403E-08   184   0.128E-03
  35 F= -.12943204E+03 E0= -.12943204E+03  d E =-.282543E-04
       N       E                     dE             d eps       ncg     rms          rms(c)
DAV:   1    -0.129432086231E+03   -0.41386E-04   -0.27044E-03   362   0.268E-01    0.937E-03
DAV:   2    -0.129432091225E+03   -0.49934E-05   -0.62615E-05   268   0.359E-02    0.606E-03
DAV:   3    -0.129432091427E+03   -0.20225E-06   -0.34547E-06   206   0.865E-03    0.369E-03
DAV:   4    -0.129432092164E+03   -0.73726E-06   -0.13280E-06   246   0.593E-03    0.634E-04
DAV:   5    -0.129432092316E+03   -0.15178E-06   -0.43260E-07   248   0.286E-03    0.475E-04
DAV:   6    -0.129432092412E+03   -0.96107E-07   -0.11114E-07   208   0.127E-03
  36 F= -.12943209E+03 E0= -.12943209E+03  d E =-.474757E-04
       N       E                     dE             d eps       ncg     rms          rms(c)
DAV:   1    -0.129432138970E+03   -0.46654E-04   -0.46327E-03   350   0.354E-01    0.137E-02
DAV:   2    -0.129432148052E+03   -0.90826E-05   -0.11918E-04   268   0.505E-02    0.853E-03
DAV:   3    -0.129432148080E+03   -0.27459E-07   -0.69953E-06   256   0.125E-02    0.510E-03
DAV:   4    -0.129432148623E+03   -0.54363E-06   -0.27979E-06   208   0.851E-03    0.961E-04
DAV:   5    -0.129432148696E+03   -0.72638E-07   -0.84745E-07   272   0.410E-03    0.658E-04
DAV:   6    -0.129432148755E+03   -0.58921E-07   -0.23778E-07   202   0.187E-03
  37 F= -.12943215E+03 E0= -.12943215E+03  d E =-.563428E-04
       N       E                     dE             d eps       ncg     rms          rms(c)
DAV:   1    -0.129432188038E+03   -0.39342E-04   -0.67255E-03   341   0.424E-01    0.157E-02
DAV:   2    -0.129432200749E+03   -0.12711E-04   -0.16464E-04   260   0.588E-02    0.100E-02
DAV:   3    -0.129432200851E+03   -0.10200E-06   -0.95322E-06   239   0.144E-02    0.603E-03
DAV:   4    -0.129432201897E+03   -0.10457E-05   -0.37358E-06   234   0.982E-03    0.111E-03
DAV:   5    -0.129432202092E+03   -0.19488E-06   -0.11907E-06   222   0.475E-03    0.781E-04
DAV:   6    -0.129432202248E+03   -0.15653E-06   -0.35204E-07   208   0.217E-03
  38 F= -.12943220E+03 E0= -.12943220E+03  d E =-.534932E-04
       N       E                     dE             d eps       ncg     rms          rms(c)
DAV:   1    -0.129432260511E+03   -0.58420E-04   -0.89853E-03   328   0.487E-01    0.172E-02
DAV:   2    -0.129432277511E+03   -0.17000E-04   -0.21070E-04   275   0.641E-02    0.114E-02
DAV:   3    -0.129432277576E+03   -0.64705E-07   -0.75544E-06   260   0.140E-02    0.697E-03
DAV:   4    -0.129432279673E+03   -0.20977E-05   -0.36754E-06   202   0.109E-02    0.125E-03
DAV:   5    -0.129432279901E+03   -0.22751E-06   -0.11131E-06   262   0.494E-03    0.900E-04
DAV:   6    -0.129432280060E+03   -0.15861E-06   -0.23992E-07   198   0.208E-03
  39 F= -.12943228E+03 E0= -.12943228E+03  d E =-.778115E-04
       N       E                     dE             d eps       ncg     rms          rms(c)
DAV:   1    -0.129432339692E+03   -0.59791E-04   -0.13906E-02   332   0.610E-01    0.224E-02
DAV:   2    -0.129432368024E+03   -0.28332E-04   -0.35462E-04   315   0.834E-02    0.157E-02
DAV:   3    -0.129432366774E+03    0.12498E-05   -0.88138E-06   272   0.163E-02    0.991E-03
DAV:   4    -0.129432369328E+03   -0.25540E-05   -0.79841E-06   232   0.153E-02    0.219E-03
DAV:   5    -0.129432369439E+03   -0.11050E-06   -0.17803E-06   272   0.701E-03    0.121E-03
DAV:   6    -0.129432369555E+03   -0.11603E-06   -0.19098E-07   204   0.237E-03
  40 F= -.12943237E+03 E0= -.12943237E+03  d E =-.894950E-04
       N       E                     dE             d eps       ncg     rms          rms(c)
DAV:   1    -0.129432432553E+03   -0.63115E-04   -0.19528E-02   335   0.716E-01    0.251E-02
DAV:   2    -0.129432470450E+03   -0.37897E-04   -0.46692E-04   324   0.944E-02    0.170E-02
DAV:   3    -0.129432469421E+03    0.10286E-05   -0.10391E-05   233   0.175E-02    0.105E-02
DAV:   4    -0.129432473519E+03   -0.40972E-05   -0.76245E-06   236   0.161E-02    0.180E-03
DAV:   5    -0.129432473874E+03   -0.35587E-06   -0.23554E-06   200   0.724E-03    0.137E-03
DAV:   6    -0.129432474122E+03   -0.24792E-06   -0.44119E-07   181   0.272E-03
  41 F= -.12943247E+03 E0= -.12943247E+03  d E =-.104568E-03
       N       E                     dE             d eps       ncg     rms          rms(c)
DAV:   1    -0.129432537109E+03   -0.63235E-04   -0.28995E-02   333   0.877E-01    0.314E-02
DAV:   2    -0.129432596852E+03   -0.59743E-04   -0.73672E-04   364   0.120E-01    0.210E-02
DAV:   3    -0.129432594298E+03    0.25543E-05   -0.10946E-05   238   0.183E-02    0.130E-02
DAV:   4    -0.129432599206E+03   -0.49085E-05   -0.13412E-05   243   0.203E-02    0.249E-03
DAV:   5    -0.129432599583E+03   -0.37672E-06   -0.30446E-06   272   0.889E-03    0.189E-03
DAV:   6    -0.129432599844E+03   -0.26130E-06   -0.34622E-07   202   0.311E-03
  42 F= -.12943260E+03 E0= -.12943260E+03  d E =-.125722E-03
       N       E                     dE             d eps       ncg     rms          rms(c)
DAV:   1    -0.129432669363E+03   -0.69780E-04   -0.37125E-02   334   0.987E-01    0.343E-02
DAV:   2    -0.129432742422E+03   -0.73058E-04   -0.89281E-04   330   0.130E-01    0.236E-02
DAV:   3    -0.129432739447E+03    0.29741E-05   -0.13712E-05   245   0.205E-02    0.147E-02
DAV:   4    -0.129432746922E+03   -0.74743E-05   -0.16978E-05   241   0.225E-02    0.311E-03
DAV:   5    -0.129432747402E+03   -0.48069E-06   -0.40324E-06   222   0.102E-02    0.205E-03
DAV:   6    -0.129432747749E+03   -0.34640E-06   -0.44266E-07   165   0.329E-03
  43 F= -.12943275E+03 E0= -.12943275E+03  d E =-.147904E-03
       N       E                     dE             d eps       ncg     rms          rms(c)
DAV:   1    -0.129432792645E+03   -0.45243E-04   -0.52344E-02   329   0.118E+00    0.418E-02
DAV:   2    -0.129432896149E+03   -0.10350E-03   -0.12712E-03   347   0.157E-01    0.294E-02
DAV:   3    -0.129432890958E+03    0.51910E-05   -0.21546E-05   272   0.261E-02    0.185E-02
DAV:   4    -0.129432900273E+03   -0.93148E-05   -0.27609E-05   232   0.286E-02    0.414E-03
DAV:   5    -0.129432900745E+03   -0.47219E-06   -0.66242E-06   272   0.133E-02    0.236E-03
DAV:   6    -0.129432901121E+03   -0.37539E-06   -0.76745E-07   196   0.424E-03
  44 F= -.12943290E+03 E0= -.12943290E+03  d E =-.153372E-03
       N       E                     dE             d eps       ncg     rms          rms(c)
DAV:   1    -0.129432926137E+03   -0.25392E-04   -0.76172E-02   330   0.143E+00    0.514E-02
DAV:   2    -0.129433073124E+03   -0.14699E-03   -0.18199E-03   338   0.191E-01    0.344E-02
DAV:   3    -0.129433066638E+03    0.64860E-05   -0.28084E-05   236   0.300E-02    0.210E-02
DAV:   4    -0.129433078053E+03   -0.11416E-04   -0.36505E-05   284   0.325E-02    0.395E-03
DAV:   5    -0.129433078883E+03   -0.82995E-06   -0.67688E-06   272   0.137E-02    0.291E-03
DAV:   6    -0.129433079478E+03   -0.59467E-06   -0.85907E-07   248   0.486E-03
  45 F= -.12943308E+03 E0= -.12943308E+03  d E =-.178357E-03
       N       E                     dE             d eps       ncg     rms          rms(c)
DAV:   1    -0.129433077286E+03    0.15969E-05   -0.98941E-02   333   0.163E+00    0.595E-02
DAV:   2    -0.129433262704E+03   -0.18542E-03   -0.23080E-03   331   0.214E-01    0.415E-02
DAV:   3    -0.129433254342E+03    0.83623E-05   -0.49348E-05   336   0.370E-02    0.254E-02
DAV:   4    -0.129433270162E+03   -0.15820E-04   -0.39756E-05   232   0.366E-02    0.464E-03
DAV:   5    -0.129433271098E+03   -0.93654E-06   -0.95577E-06   272   0.163E-02    0.291E-03
DAV:   6    -0.129433271702E+03   -0.60361E-06   -0.11160E-06   204   0.533E-03
  46 F= -.12943327E+03 E0= -.12943327E+03  d E =-.192224E-03
       N       E                     dE             d eps       ncg     rms          rms(c)
DAV:   1    -0.129433141306E+03    0.12979E-03   -0.14418E-01   329   0.198E+00    0.733E-02
DAV:   2    -0.129433422144E+03   -0.28084E-03   -0.34926E-03   339   0.268E-01    0.486E-02
DAV:   3    -0.129433409854E+03    0.12290E-04   -0.67738E-05   332   0.431E-02    0.289E-02
DAV:   4    -0.129433426317E+03   -0.16463E-04   -0.56593E-05   275   0.436E-02    0.492E-03
DAV:   5    -0.129433427897E+03   -0.15801E-05   -0.12606E-05   272   0.186E-02    0.371E-03
DAV:   6    -0.129433428915E+03   -0.10180E-05   -0.16322E-06   248   0.681E-03
  47 F= -.12943343E+03 E0= -.12943343E+03  d E =-.157213E-03
       N       E                     dE             d eps       ncg     rms          rms(c)
DAV:   1    -0.129432751437E+03    0.67646E-03   -0.21070E-01   334   0.243E+00    0.106E-01
DAV:   2    -0.129433248967E+03   -0.49753E-03   -0.64708E-03   360   0.365E-01    0.739E-02
DAV:   3    -0.129433197986E+03    0.50982E-04   -0.14379E-04   342   0.672E-02    0.455E-02
DAV:   4    -0.129433200085E+03   -0.20999E-05   -0.13669E-04   297   0.627E-02    0.875E-03
DAV:   5    -0.129433201006E+03   -0.92039E-06   -0.25796E-05   304   0.261E-02    0.524E-03
DAV:   6    -0.129433201837E+03   -0.83136E-06   -0.31836E-06   240   0.898E-03
  48 F= -.12943320E+03 E0= -.12943320E+03  d E =0.227078E-03
       N       E                     dE             d eps       ncg     rms          rms(c)
DAV:   1    -0.129433614590E+03   -0.41358E-03   -0.42735E-02   328   0.103E+00    0.730E-02
DAV:   2    -0.129433742678E+03   -0.12809E-03   -0.18467E-03   370   0.186E-01    0.392E-02
DAV:   3    -0.129433725217E+03    0.17461E-04   -0.48661E-05   332   0.381E-02    0.216E-02
DAV:   4    -0.129433717685E+03    0.75318E-05   -0.38791E-05   234   0.309E-02    0.467E-03
DAV:   5    -0.129433717576E+03    0.10864E-06   -0.88382E-06   320   0.140E-02    0.280E-03
DAV:   6    -0.129433717915E+03   -0.33918E-06   -0.13608E-06   264   0.567E-03
  49 F= -.12943372E+03 E0= -.12943372E+03  d E =-.516078E-03
       N       E                     dE             d eps       ncg     rms          rms(c)
DAV:   1    -0.129433723618E+03   -0.60417E-05   -0.42549E-05   294   0.331E-02    0.206E-03
DAV:   2    -0.129433724818E+03   -0.12001E-05   -0.23882E-06   270   0.809E-03    0.117E-03
DAV:   3    -0.129433725836E+03   -0.10180E-05   -0.28414E-07   219   0.272E-03    0.755E-04
DAV:   4    -0.129433727351E+03   -0.15144E-05   -0.10275E-07   259   0.153E-03    0.290E-04
DAV:   5    -0.129433728169E+03   -0.81885E-06   -0.12300E-08   270   0.707E-04    0.157E-04
DAV:   6    -0.129433728980E+03   -0.81080E-06   -0.27259E-09   202   0.485E-04
  50 F= -.12943373E+03 E0= -.12943373E+03  d E =-.110647E-04
       N       E                     dE             d eps       ncg     rms          rms(c)
DAV:   1    -0.129433736017E+03   -0.78471E-05   -0.14234E-04   291   0.619E-02    0.333E-03
DAV:   2    -0.129433737036E+03   -0.10199E-05   -0.71662E-06   272   0.136E-02    0.214E-03
DAV:   3    -0.129433737430E+03   -0.39356E-06   -0.74016E-07   202   0.440E-03    0.138E-03
DAV:   4    -0.129433738018E+03   -0.58810E-06   -0.20547E-07   236   0.243E-03    0.388E-04
DAV:   5    -0.129433738255E+03   -0.23726E-06   -0.34616E-08   272   0.120E-03    0.200E-04
DAV:   6    -0.129433738450E+03   -0.19447E-06    0.81986E-09   200   0.626E-04
  51 F= -.12943374E+03 E0= -.12943374E+03  d E =-.946968E-05
       N       E                     dE             d eps       ncg     rms          rms(c)
DAV:   1    -0.129433741446E+03   -0.31911E-05   -0.24269E-04   344   0.811E-02    0.405E-03
DAV:   2    -0.129433742137E+03   -0.69051E-06   -0.87332E-06   233   0.145E-02    0.266E-03
DAV:   3    -0.129433742196E+03   -0.59471E-07   -0.96145E-07   272   0.497E-03    0.164E-03
DAV:   4    -0.129433742209E+03   -0.12756E-07   -0.27554E-07   200   0.279E-03    0.442E-04
DAV:   5    -0.129433742229E+03   -0.19973E-07   -0.48324E-08   264   0.144E-03    0.231E-04
DAV:   6    -0.129433742258E+03   -0.28879E-07    0.73986E-09   192   0.711E-04
  52 F= -.12943374E+03 E0= -.12943374E+03  d E =-.380818E-05
       N       E                     dE             d eps       ncg     rms          rms(c)
DAV:   1    -0.129433742686E+03   -0.45671E-06   -0.40551E-04   282   0.103E-01    0.477E-03
DAV:   2    -0.129433743259E+03   -0.57329E-06   -0.92504E-06   230   0.156E-02    0.305E-03
DAV:   3    -0.129433743305E+03   -0.46066E-07   -0.10956E-06   186   0.560E-03    0.166E-03
DAV:   4    -0.129433743315E+03   -0.98407E-08   -0.28750E-07   236   0.294E-03    0.406E-04
DAV:   5    -0.129433743337E+03   -0.22314E-07   -0.46712E-08   165   0.155E-03    0.231E-04
DAV:   6    -0.129433743368E+03   -0.30654E-07    0.12566E-08   165   0.741E-04
  53 F= -.12943374E+03 E0= -.12943374E+03  d E =-.111000E-05
       N       E                     dE             d eps       ncg     rms          rms(c)
DAV:   1    -0.129433745713E+03   -0.23751E-05   -0.67866E-04   302   0.129E-01    0.597E-03
DAV:   2    -0.129433746097E+03   -0.38476E-06   -0.81148E-06   164   0.145E-02    0.370E-03
DAV:   3    -0.129433746262E+03   -0.16462E-06   -0.10609E-06   164   0.540E-03    0.151E-03
DAV:   4    -0.129433746358E+03   -0.96434E-07   -0.27062E-07   165   0.262E-03    0.364E-04
DAV:   5    -0.129433746398E+03   -0.39935E-07   -0.38867E-08   173   0.130E-03    0.171E-04
DAV:   6    -0.129433746429E+03   -0.30673E-07    0.11642E-08   166   0.638E-04
  54 F= -.12943375E+03 E0= -.12943375E+03  d E =-.306088E-05
       N       E                     dE             d eps       ncg     rms          rms(c)
DAV:   1    -0.129433752197E+03   -0.57986E-05   -0.11114E-03   336   0.165E-01    0.756E-03
DAV:   2    -0.129433752842E+03   -0.64517E-06   -0.13315E-05   211   0.185E-02    0.469E-03
DAV:   3    -0.129433753105E+03   -0.26297E-06   -0.17833E-06   255   0.698E-03    0.183E-03
DAV:   4    -0.129433753224E+03   -0.11858E-06   -0.46932E-07   200   0.335E-03    0.435E-04
DAV:   5    -0.129433753251E+03   -0.27811E-07   -0.86737E-08   164   0.163E-03    0.193E-04
DAV:   6    -0.129433753268E+03   -0.17093E-07   -0.69066E-09   189   0.842E-04
  55 F= -.12943375E+03 E0= -.12943375E+03  d E =-.683954E-05
       N       E                     dE             d eps       ncg     rms          rms(c)
DAV:   1    -0.129433759945E+03   -0.66941E-05   -0.20777E-03   292   0.227E-01    0.104E-02
DAV:   2    -0.129433761326E+03   -0.13801E-05   -0.27753E-05   245   0.265E-02    0.648E-03
DAV:   3    -0.129433761670E+03   -0.34461E-06   -0.36833E-06   253   0.995E-03    0.264E-03
DAV:   4    -0.129433761809E+03   -0.13891E-06   -0.99401E-07   238   0.485E-03    0.627E-04
DAV:   5    -0.129433761826E+03   -0.17095E-07   -0.21520E-07   176   0.241E-03    0.279E-04
DAV:   6    -0.129433761846E+03   -0.20094E-07   -0.50900E-08   165   0.122E-03
  56 F= -.12943376E+03 E0= -.12943376E+03  d E =-.857777E-05
       N       E                     dE             d eps       ncg     rms          rms(c)
DAV:   1    -0.129433765559E+03   -0.37333E-05   -0.34219E-03   324   0.291E-01    0.133E-02
DAV:   2    -0.129433767736E+03   -0.21768E-05   -0.44728E-05   229   0.337E-02    0.828E-03
DAV:   3    -0.129433768238E+03   -0.50194E-06   -0.59561E-06   253   0.126E-02    0.334E-03
DAV:   4    -0.129433768450E+03   -0.21159E-06   -0.16190E-06   264   0.614E-03    0.787E-04
DAV:   5    -0.129433768494E+03   -0.44347E-07   -0.36427E-07   167   0.304E-03    0.352E-04
DAV:   6    -0.129433768552E+03   -0.57792E-07   -0.10070E-07   196   0.155E-03
  57 F= -.12943377E+03 E0= -.12943377E+03  d E =-.670561E-05
       N       E                     dE             d eps       ncg     rms          rms(c)
DAV:   1    -0.129433773633E+03   -0.51389E-05   -0.50044E-03   328   0.349E-01    0.160E-02
DAV:   2    -0.129433776486E+03   -0.28530E-05   -0.58357E-05   237   0.388E-02    0.991E-03
DAV:   3    -0.129433777476E+03   -0.99038E-06   -0.78778E-06   209   0.146E-02    0.385E-03
DAV:   4    -0.129433777964E+03   -0.48785E-06   -0.21500E-06   205   0.695E-03    0.888E-04
DAV:   5    -0.129433778071E+03   -0.10708E-06   -0.48480E-07   165   0.335E-03    0.407E-04
DAV:   6    -0.129433778156E+03   -0.84930E-07   -0.13664E-07   199   0.173E-03
  58 F= -.12943378E+03 E0= -.12943378E+03  d E =-.960432E-05
       N       E                     dE             d eps       ncg     rms          rms(c)
DAV:   1    -0.129433789306E+03   -0.11235E-04   -0.70941E-03   325   0.418E-01    0.192E-02
DAV:   2    -0.129433793736E+03   -0.44301E-05   -0.87179E-05   236   0.474E-02    0.120E-02
DAV:   3    -0.129433795092E+03   -0.13560E-05   -0.11547E-05   247   0.176E-02    0.495E-03
DAV:   4    -0.129433795770E+03   -0.67821E-06   -0.32117E-06   264   0.854E-03    0.117E-03
DAV:   5    -0.129433795867E+03   -0.96367E-07   -0.76001E-07   200   0.422E-03    0.548E-04
DAV:   6    -0.129433795927E+03   -0.60232E-07   -0.21450E-07   164   0.203E-03
  59 F= -.12943380E+03 E0= -.12943380E+03  d E =-.177706E-04
       N       E                     dE             d eps       ncg     rms          rms(c)
DAV:   1    -0.129433807091E+03   -0.11225E-04   -0.95917E-03   328   0.489E-01    0.222E-02
DAV:   2    -0.129433813985E+03   -0.68941E-05   -0.12751E-04   267   0.564E-02    0.139E-02
DAV:   3    -0.129433815162E+03   -0.11764E-05   -0.12309E-05   247   0.171E-02    0.625E-03
DAV:   4    -0.129433816056E+03   -0.89460E-06   -0.45349E-06   264   0.986E-03    0.132E-03
DAV:   5    -0.129433816171E+03   -0.11480E-06   -0.11035E-06   200   0.497E-03    0.679E-04
DAV:   6    -0.129433816260E+03   -0.89135E-07   -0.28720E-07   164   0.218E-03
  60 F= -.12943382E+03 E0= -.12943382E+03  d E =-.203334E-04
       N       E                     dE             d eps       ncg     rms          rms(c)
DAV:   1    -0.129433838224E+03   -0.22053E-04   -0.10969E-02   332   0.529E-01    0.229E-02
DAV:   2    -0.129433847555E+03   -0.93306E-05   -0.15409E-04   268   0.619E-02    0.144E-02
DAV:   3    -0.129433849051E+03   -0.14964E-05   -0.13729E-05   236   0.183E-02    0.642E-03
DAV:   4    -0.129433850256E+03   -0.12046E-05   -0.50072E-06   272   0.105E-02    0.132E-03
DAV:   5    -0.129433850409E+03   -0.15377E-06   -0.12056E-06   256   0.507E-03    0.647E-04
DAV:   6    -0.129433850495E+03   -0.85154E-07   -0.34386E-07   212   0.236E-03
  61 F= -.12943385E+03 E0= -.12943385E+03  d E =-.342343E-04
       N       E                     dE             d eps       ncg     rms          rms(c)
DAV:   1    -0.129433851625E+03   -0.12153E-05   -0.45531E-06   217   0.113E-02    0.475E-04
DAV:   2    -0.129433851703E+03   -0.78277E-07   -0.29038E-07   164   0.313E-03    0.290E-04
DAV:   3    -0.129433851762E+03   -0.59013E-07   -0.24483E-08   204   0.103E-03    0.207E-04
DAV:   4    -0.129433851861E+03   -0.99538E-07    0.12433E-08   235   0.606E-04    0.502E-05
DAV:   5    -0.129433851911E+03   -0.49598E-07    0.24335E-08   172   0.329E-04    0.451E-05
DAV:   6    -0.129433851968E+03   -0.56448E-07    0.28677E-08   263   0.216E-04
  62 F= -.12943385E+03 E0= -.12943385E+03  d E =-.147300E-05
       N       E                     dE             d eps       ncg     rms          rms(c)
DAV:   1    -0.129433854052E+03   -0.21407E-05   -0.16097E-05   212   0.213E-02    0.802E-04
DAV:   2    -0.129433854155E+03   -0.10317E-06   -0.93375E-07   188   0.570E-03    0.467E-04
DAV:   3    -0.129433854177E+03   -0.22445E-07   -0.80690E-08   164   0.161E-03    0.352E-04
DAV:   4    -0.129433854196E+03   -0.18663E-07    0.30269E-09   164   0.812E-04    0.861E-05
DAV:   5    -0.129433854203E+03   -0.66057E-08    0.21239E-08   228   0.385E-04    0.620E-05
DAV:   6    -0.129433854206E+03   -0.29340E-08    0.27534E-08   164   0.218E-04
  63 F= -.12943385E+03 E0= -.12943385E+03  d E =-.223808E-05
       N       E                     dE             d eps       ncg     rms          rms(c)
DAV:   1    -0.129433857142E+03   -0.29392E-05   -0.31616E-05   164   0.299E-02    0.111E-03
DAV:   2    -0.129433857319E+03   -0.17697E-06   -0.18668E-06   164   0.802E-03    0.649E-04
DAV:   3    -0.129433857342E+03   -0.23279E-07   -0.18388E-07   164   0.225E-03    0.488E-04
DAV:   4    -0.129433857349E+03   -0.73351E-08   -0.22830E-08   164   0.112E-03    0.113E-04
DAV:   5    -0.129433857351E+03   -0.13815E-08    0.12341E-08   164   0.531E-04    0.861E-05
DAV:   6    -0.129433857351E+03   -0.21282E-09    0.24761E-08   164   0.298E-04
  64 F= -.12943386E+03 E0= -.12943386E+03  d E =-.314545E-05
       N       E                     dE             d eps       ncg     rms          rms(c)
DAV:   1    -0.129433861111E+03   -0.37601E-05   -0.47310E-05   164   0.365E-02    0.133E-03
DAV:   2    -0.129433861377E+03   -0.26617E-06   -0.28095E-06   164   0.984E-03    0.783E-04
DAV:   3    -0.129433861410E+03   -0.33049E-07   -0.28261E-07   164   0.273E-03    0.588E-04
DAV:   4    -0.129433861423E+03   -0.12856E-07   -0.48050E-08   164   0.136E-03    0.133E-04
DAV:   5    -0.129433861426E+03   -0.28649E-08    0.35295E-09   164   0.645E-04    0.105E-04
DAV:   6    -0.129433861426E+03   -0.58026E-09    0.22192E-08   164   0.365E-04
  65 F= -.12943386E+03 E0= -.12943386E+03  d E =-.407537E-05
       N       E                     dE             d eps       ncg     rms          rms(c)
DAV:   1    -0.129433865780E+03   -0.43539E-05   -0.61731E-05   164   0.417E-02    0.151E-03
DAV:   2    -0.129433866128E+03   -0.34844E-06   -0.36582E-06   164   0.112E-02    0.891E-04
DAV:   3    -0.129433866171E+03   -0.42845E-07   -0.37150E-07   164   0.311E-03    0.669E-04
DAV:   4    -0.129433866189E+03   -0.17725E-07   -0.69704E-08   164   0.154E-03    0.150E-04
DAV:   5    -0.129433866193E+03   -0.42846E-08   -0.38896E-09   164   0.732E-04    0.120E-04
DAV:   6    -0.129433866194E+03   -0.98498E-09    0.20042E-08   164   0.413E-04
  66 F= -.12943387E+03 E0= -.12943387E+03  d E =-.476761E-05
       N       E                     dE             d eps       ncg     rms          rms(c)
DAV:   1    -0.129433870857E+03   -0.46640E-05   -0.81859E-05   164   0.482E-02    0.178E-03
DAV:   2    -0.129433871316E+03   -0.45893E-06   -0.48191E-06   164   0.128E-02    0.105E-03
DAV:   3    -0.129433871375E+03   -0.58709E-07   -0.51266E-07   164   0.362E-03    0.788E-04
DAV:   4    -0.129433871395E+03   -0.20381E-07   -0.10082E-07   164   0.181E-03    0.186E-04
DAV:   5    -0.129433871400E+03   -0.51350E-08   -0.13286E-08   164   0.855E-04    0.137E-04
DAV:   6    -0.129433871401E+03   -0.12433E-08    0.17500E-08   164   0.473E-04
  67 F= -.12943387E+03 E0= -.12943387E+03  d E =-.520739E-05
       N       E                     dE             d eps       ncg     rms          rms(c)
DAV:   1    -0.129433876642E+03   -0.52418E-05   -0.15979E-04   196   0.666E-02    0.263E-03
DAV:   2    -0.129433877322E+03   -0.68002E-06   -0.74161E-06   164   0.152E-02    0.152E-03
DAV:   3    -0.129433877415E+03   -0.92943E-07   -0.78662E-07   164   0.462E-03    0.106E-03
DAV:   4    -0.129433877442E+03   -0.26528E-07   -0.15197E-07   164   0.231E-03    0.174E-04
DAV:   5    -0.129433877447E+03   -0.57998E-08   -0.21273E-08   164   0.109E-03    0.170E-04
DAV:   6    -0.129433877449E+03   -0.15416E-08    0.17569E-08   164   0.542E-04
  68 F= -.12943388E+03 E0= -.12943388E+03  d E =-.604743E-05
       N       E                     dE             d eps       ncg     rms          rms(c)
DAV:   1    -0.129433883674E+03   -0.62263E-05   -0.37809E-04   260   0.991E-02    0.419E-03
DAV:   2    -0.129433884131E+03   -0.45790E-06   -0.66539E-06   164   0.135E-02    0.261E-03
DAV:   3    -0.129433884235E+03   -0.10348E-06   -0.75108E-07   164   0.488E-03    0.120E-03
DAV:   4    -0.129433884279E+03   -0.43739E-07   -0.17714E-07   164   0.236E-03    0.252E-04
DAV:   5    -0.129433884285E+03   -0.61391E-08   -0.22998E-08   164   0.118E-03    0.140E-04
DAV:   6    -0.129433884288E+03   -0.30859E-08    0.15620E-08   164   0.574E-04
  69 F= -.12943388E+03 E0= -.12943388E+03  d E =-.683907E-05
       N       E                     dE             d eps       ncg     rms          rms(c)
DAV:   1    -0.129433891199E+03   -0.69138E-05   -0.87275E-04   292   0.148E-01    0.656E-03
DAV:   2    -0.129433891782E+03   -0.58337E-06   -0.10860E-05   164   0.168E-02    0.409E-03
DAV:   3    -0.129433891975E+03   -0.19285E-06   -0.13448E-06   164   0.611E-03    0.167E-03
DAV:   4    -0.129433892059E+03   -0.84418E-07   -0.34933E-07   164   0.294E-03    0.377E-04
DAV:   5    -0.129433892070E+03   -0.10707E-07   -0.60494E-08   164   0.142E-03    0.173E-04
DAV:   6    -0.129433892075E+03   -0.55170E-08    0.27119E-09   164   0.711E-04
  70 F= -.12943389E+03 E0= -.12943389E+03  d E =-.778756E-05
       N       E                     dE             d eps       ncg     rms          rms(c)
DAV:   1    -0.129433899008E+03   -0.69379E-05   -0.18821E-03   292   0.215E-01    0.976E-03
DAV:   2    -0.129433900100E+03   -0.10918E-05   -0.22163E-05   200   0.240E-02    0.607E-03
DAV:   3    -0.129433900513E+03   -0.41367E-06   -0.29057E-06   164   0.888E-03    0.238E-03
DAV:   4    -0.129433900688E+03   -0.17485E-06   -0.77972E-07   164   0.424E-03    0.550E-04
DAV:   5    -0.129433900711E+03   -0.23070E-07   -0.16147E-07   164   0.204E-03    0.251E-04
DAV:   6    -0.129433900723E+03   -0.12084E-07   -0.29630E-08   164   0.103E-03
  71 F= -.12943390E+03 E0= -.12943390E+03  d E =-.864792E-05
       N       E                     dE             d eps       ncg     rms          rms(c)
DAV:   1    -0.129433907233E+03   -0.65215E-05   -0.37063E-03   324   0.300E-01    0.138E-02
DAV:   2    -0.129433909253E+03   -0.20198E-05   -0.42542E-05   200   0.332E-02    0.856E-03
DAV:   3    -0.129433910039E+03   -0.78680E-06   -0.57347E-06   208   0.124E-02    0.330E-03
DAV:   4    -0.129433910379E+03   -0.33968E-06   -0.15588E-06   164   0.591E-03    0.766E-04
DAV:   5    -0.129433910425E+03   -0.45523E-07   -0.34452E-07   164   0.284E-03    0.350E-04
DAV:   6    -0.129433910450E+03   -0.25706E-07   -0.88604E-08   164   0.144E-03
  72 F= -.12943391E+03 E0= -.12943391E+03  d E =-.972691E-05
       N       E                     dE             d eps       ncg     rms          rms(c)
DAV:   1    -0.129433917317E+03   -0.68926E-05   -0.66793E-03   324   0.402E-01    0.186E-02
DAV:   2    -0.129433920894E+03   -0.35769E-05   -0.75780E-05   236   0.443E-02    0.115E-02
DAV:   3    -0.129433922247E+03   -0.13527E-05   -0.10324E-05   248   0.166E-02    0.440E-03
DAV:   4    -0.129433922848E+03   -0.60148E-06   -0.28307E-06   222   0.791E-03    0.102E-03
DAV:   5    -0.129433922931E+03   -0.82337E-07   -0.64218E-07   164   0.379E-03    0.468E-04
DAV:   6    -0.129433922978E+03   -0.46962E-07   -0.18402E-07   164   0.193E-03
  73 F= -.12943392E+03 E0= -.12943392E+03  d E =-.125272E-04
       N       E                     dE             d eps       ncg     rms          rms(c)
DAV:   1    -0.129433928383E+03   -0.54520E-05   -0.10922E-02   324   0.514E-01    0.237E-02
DAV:   2    -0.129433934646E+03   -0.62633E-05   -0.12712E-04   267   0.565E-02    0.148E-02
DAV:   3    -0.129433936379E+03   -0.17335E-05   -0.13515E-05   235   0.178E-02    0.591E-03
DAV:   4    -0.129433937402E+03   -0.10226E-05   -0.47060E-06   269   0.966E-03    0.129E-03
DAV:   5    -0.129433937521E+03   -0.11899E-06   -0.10811E-06   181   0.471E-03    0.621E-04
DAV:   6    -0.129433937591E+03   -0.69585E-07   -0.29971E-07   181   0.221E-03
  74 F= -.12943394E+03 E0= -.12943394E+03  d E =-.146130E-04
       N       E                     dE             d eps       ncg     rms          rms(c)
DAV:   1    -0.129433942173E+03   -0.46518E-05   -0.16244E-02   324   0.627E-01    0.290E-02
DAV:   2    -0.129433951799E+03   -0.96258E-05   -0.19075E-04   268   0.693E-02    0.180E-02
DAV:   3    -0.129433954283E+03   -0.24840E-05   -0.20170E-05   227   0.217E-02    0.725E-03
DAV:   4    -0.129433955806E+03   -0.15232E-05   -0.70281E-06   269   0.118E-02    0.157E-03
DAV:   5    -0.129433955987E+03   -0.18061E-06   -0.16371E-06   200   0.575E-03    0.758E-04
DAV:   6    -0.129433956092E+03   -0.10525E-06   -0.46677E-07   164   0.269E-03
  75 F= -.12943396E+03 E0= -.12943396E+03  d E =-.185012E-04
       N       E                     dE             d eps       ncg     rms          rms(c)
DAV:   1    -0.129433967886E+03   -0.11899E-04   -0.21075E-02   327   0.720E-01    0.326E-02
DAV:   2    -0.129433984286E+03   -0.16401E-04   -0.28343E-04   332   0.807E-02    0.212E-02
DAV:   3    -0.129433984968E+03   -0.68214E-06   -0.12856E-05   209   0.200E-02    0.978E-03
DAV:   4    -0.129433987173E+03   -0.22045E-05   -0.84273E-06   264   0.137E-02    0.180E-03
DAV:   5    -0.129433987293E+03   -0.12050E-06   -0.16693E-06   235   0.643E-03    0.112E-03
DAV:   6    -0.129433987384E+03   -0.90273E-07   -0.28655E-07   188   0.251E-03
  76 F= -.12943399E+03 E0= -.12943399E+03  d E =-.312918E-04
       N       E                     dE             d eps       ncg     rms          rms(c)
DAV:   1    -0.129433988807E+03   -0.15136E-05   -0.75217E-06   225   0.146E-02    0.588E-04
DAV:   2    -0.129433988909E+03   -0.10178E-06   -0.45743E-07   164   0.399E-03    0.337E-04
DAV:   3    -0.129433988971E+03   -0.62738E-07   -0.35172E-08   197   0.122E-03    0.244E-04
DAV:   4    -0.129433989077E+03   -0.10601E-06    0.12329E-08   242   0.653E-04    0.593E-05
DAV:   5    -0.129433989134E+03   -0.56603E-07    0.25160E-08   199   0.341E-04    0.493E-05
DAV:   6    -0.129433989196E+03   -0.62110E-07    0.30024E-08   222   0.223E-04
  77 F= -.12943399E+03 E0= -.12943399E+03  d E =-.181255E-05
       N       E                     dE             d eps       ncg     rms          rms(c)
DAV:   1    -0.129433991771E+03   -0.26370E-05   -0.28555E-05   251   0.284E-02    0.106E-03
DAV:   2    -0.129433991943E+03   -0.17215E-06   -0.16786E-06   164   0.760E-03    0.614E-04
DAV:   3    -0.129433991975E+03   -0.32032E-07   -0.16327E-07   188   0.214E-03    0.463E-04
DAV:   4    -0.129433992000E+03   -0.25241E-07   -0.16156E-08   164   0.107E-03    0.100E-04
DAV:   5    -0.129433992010E+03   -0.99353E-08    0.15716E-08   167   0.505E-04    0.803E-05
DAV:   6    -0.129433992014E+03   -0.41455E-08    0.26829E-08   164   0.279E-04
  78 F= -.12943399E+03 E0= -.12943399E+03  d E =-.281840E-05
       N       E                     dE             d eps       ncg     rms          rms(c)
DAV:   1    -0.129433995618E+03   -0.36072E-05   -0.59529E-05   164   0.409E-02    0.151E-03
DAV:   2    -0.129433995948E+03   -0.33071E-06   -0.35394E-06   164   0.110E-02    0.878E-04
DAV:   3    -0.129433995990E+03   -0.41455E-07   -0.37355E-07   164   0.308E-03    0.663E-04
DAV:   4    -0.129433996004E+03   -0.14104E-07   -0.69174E-08   164   0.154E-03    0.141E-04
DAV:   5    -0.129433996008E+03   -0.43756E-08   -0.27388E-09   164   0.724E-04    0.115E-04
DAV:   6    -0.129433996010E+03   -0.19218E-08    0.20779E-08   164   0.401E-04
  79 F= -.12943400E+03 E0= -.12943400E+03  d E =-.399558E-05
       N       E                     dE             d eps       ncg     rms          rms(c)
DAV:   1    -0.129434000796E+03   -0.47874E-05   -0.97076E-05   196   0.517E-02    0.190E-03
DAV:   2    -0.129434001176E+03   -0.38042E-06   -0.42486E-06   164   0.119E-02    0.111E-03
DAV:   3    -0.129434001218E+03   -0.42187E-07   -0.39521E-07   164   0.349E-03    0.779E-04
DAV:   4    -0.129434001237E+03   -0.18743E-07   -0.67258E-08   164   0.170E-03    0.117E-04
DAV:   5    -0.129434001241E+03   -0.42419E-08    0.56033E-10   164   0.816E-04    0.113E-04
DAV:   6    -0.129434001243E+03   -0.18172E-08    0.22726E-08   164   0.416E-04
  80 F= -.12943400E+03 E0= -.12943400E+03  d E =-.523289E-05
       N       E                     dE             d eps       ncg     rms          rms(c)
DAV:   1    -0.129434006995E+03   -0.57536E-05   -0.13588E-04   196   0.612E-02    0.222E-03
DAV:   2    -0.129434007528E+03   -0.53362E-06   -0.59178E-06   164   0.140E-02    0.130E-03
DAV:   3    -0.129434007588E+03   -0.59355E-07   -0.55150E-07   164   0.411E-03    0.915E-04
DAV:   4    -0.129434007618E+03   -0.30273E-07   -0.10250E-07   164   0.199E-03    0.139E-04
DAV:   5    -0.129434007623E+03   -0.46002E-08   -0.10397E-08   164   0.955E-04    0.132E-04
DAV:   6    -0.129434007625E+03   -0.27230E-08    0.19676E-08   164   0.488E-04
  81 F= -.12943401E+03 E0= -.12943401E+03  d E =-.638230E-05
       N       E                     dE             d eps       ncg     rms          rms(c)
DAV:   1    -0.129434014158E+03   -0.65356E-05   -0.17285E-04   196   0.690E-02    0.249E-03
DAV:   2    -0.129434014838E+03   -0.68011E-06   -0.75145E-06   164   0.158E-02    0.146E-03
DAV:   3    -0.129434014914E+03   -0.75956E-07   -0.70260E-07   164   0.462E-03    0.103E-03
DAV:   4    -0.129434014954E+03   -0.39564E-07   -0.13825E-07   164   0.223E-03    0.160E-04
DAV:   5    -0.129434014960E+03   -0.65156E-08   -0.21738E-08   164   0.108E-03    0.150E-04
DAV:   6    -0.129434014963E+03   -0.28003E-08    0.16426E-08   164   0.550E-04
  82 F= -.12943401E+03 E0= -.12943401E+03  d E =-.733781E-05
       N       E                     dE             d eps       ncg     rms          rms(c)
DAV:   1    -0.129434023031E+03   -0.80711E-05   -0.26284E-04   228   0.847E-02    0.305E-03
DAV:   2    -0.129434023746E+03   -0.71476E-06   -0.83404E-06   164   0.156E-02    0.187E-03
DAV:   3    -0.129434023826E+03   -0.80188E-07   -0.73936E-07   164   0.488E-03    0.117E-03
DAV:   4    -0.129434023882E+03   -0.55803E-07   -0.14751E-07   164   0.234E-03    0.184E-04
DAV:   5    -0.129434023890E+03   -0.73915E-08   -0.23627E-08   164   0.114E-03    0.151E-04
DAV:   6    -0.129434023894E+03   -0.40636E-08    0.15496E-08   164   0.549E-04
  83 F= -.12943402E+03 E0= -.12943402E+03  d E =-.893053E-05
       N       E                     dE             d eps       ncg     rms          rms(c)
DAV:   1    -0.129434033580E+03   -0.96903E-05   -0.41097E-04   260   0.106E-01    0.387E-03
DAV:   2    -0.129434034299E+03   -0.71902E-06   -0.92278E-06   164   0.152E-02    0.244E-03
DAV:   3    -0.129434034399E+03   -0.10040E-06   -0.86981E-07   164   0.508E-03    0.138E-03
DAV:   4    -0.129434034481E+03   -0.81264E-07   -0.19957E-07   164   0.258E-03    0.252E-04
DAV:   5    -0.129434034490E+03   -0.99581E-08   -0.38562E-08   164   0.127E-03    0.155E-04
DAV:   6    -0.129434034496E+03   -0.51932E-08    0.10327E-08   164   0.603E-04
  84 F= -.12943403E+03 E0= -.12943403E+03  d E =-.106021E-04
       N       E                     dE             d eps       ncg     rms          rms(c)
DAV:   1    -0.129434045514E+03   -0.11024E-04   -0.67928E-04   260   0.135E-01    0.513E-03
DAV:   2    -0.129434046587E+03   -0.10726E-05   -0.14248E-05   164   0.192E-02    0.324E-03
DAV:   3    -0.129434046757E+03   -0.17000E-06   -0.14274E-06   164   0.655E-03    0.175E-03
DAV:   4    -0.129434046878E+03   -0.12142E-06   -0.34944E-07   164   0.329E-03    0.322E-04
DAV:   5    -0.129434046893E+03   -0.15298E-07   -0.78533E-08   164   0.162E-03    0.195E-04
DAV:   6    -0.129434046901E+03   -0.79135E-08   -0.13714E-09   164   0.767E-04
  85 F= -.12943405E+03 E0= -.12943405E+03  d E =-.124058E-04
       N       E                     dE             d eps       ncg     rms          rms(c)
DAV:   1    -0.129434059827E+03   -0.12934E-04   -0.11579E-03   292   0.175E-01    0.688E-03
DAV:   2    -0.129434061117E+03   -0.12894E-05   -0.19000E-05   164   0.214E-02    0.440E-03
DAV:   3    -0.129434061345E+03   -0.22874E-06   -0.19010E-06   164   0.716E-03    0.218E-03
DAV:   4    -0.129434061523E+03   -0.17781E-06   -0.50323E-07   164   0.362E-03    0.412E-04
DAV:   5    -0.129434061546E+03   -0.22301E-07   -0.11725E-07   164   0.173E-03    0.223E-04
DAV:   6    -0.129434061557E+03   -0.11973E-07   -0.15112E-08   164   0.835E-04
  86 F= -.12943406E+03 E0= -.12943406E+03  d E =-.146561E-04
       N       E                     dE             d eps       ncg     rms          rms(c)
DAV:   1    -0.129434076393E+03   -0.14847E-04   -0.19395E-03   292   0.226E-01    0.904E-03
DAV:   2    -0.129434078382E+03   -0.19890E-05   -0.30358E-05   200   0.272E-02    0.577E-03
DAV:   3    -0.129434078766E+03   -0.38485E-06   -0.31657E-06   164   0.924E-03    0.277E-03
DAV:   4    -0.129434079046E+03   -0.27921E-06   -0.85490E-07   180   0.463E-03    0.534E-04
DAV:   5    -0.129434079080E+03   -0.34835E-07   -0.20941E-07   164   0.221E-03    0.281E-04
DAV:   6    -0.129434079100E+03   -0.19596E-07   -0.44668E-08   164   0.107E-03
  87 F= -.12943408E+03 E0= -.12943408E+03  d E =-.175426E-04
       N       E                     dE             d eps       ncg     rms          rms(c)
DAV:   1    -0.129434096537E+03   -0.17457E-04   -0.31397E-03   324   0.287E-01    0.116E-02
DAV:   2    -0.129434099655E+03   -0.31182E-05   -0.48341E-05   200   0.344E-02    0.738E-03
DAV:   3    -0.129434100273E+03   -0.61820E-06   -0.51188E-06   197   0.117E-02    0.350E-03
DAV:   4    -0.129434100713E+03   -0.43993E-06   -0.13998E-06   206   0.587E-03    0.682E-04
DAV:   5    -0.129434100768E+03   -0.55100E-07   -0.35456E-07   164   0.279E-03    0.355E-04
DAV:   6    -0.129434100799E+03   -0.30667E-07   -0.90789E-08   164   0.135E-03
  88 F= -.12943410E+03 E0= -.12943410E+03  d E =-.216990E-04
       N       E                     dE             d eps       ncg     rms          rms(c)
DAV:   1    -0.129434121358E+03   -0.20589E-04   -0.48620E-03   324   0.358E-01    0.143E-02
DAV:   2    -0.129434126383E+03   -0.50250E-05   -0.76409E-05   233   0.431E-02    0.915E-03
DAV:   3    -0.129434127286E+03   -0.90315E-06   -0.79761E-06   200   0.146E-02    0.440E-03
DAV:   4    -0.129434127975E+03   -0.68912E-06   -0.21879E-06   260   0.734E-03    0.847E-04
DAV:   5    -0.129434128063E+03   -0.88317E-07   -0.57458E-07   164   0.350E-03    0.445E-04
DAV:   6    -0.129434128112E+03   -0.49049E-07   -0.16043E-07   164   0.168E-03
  89 F= -.12943413E+03 E0= -.12943413E+03  d E =-.273132E-04
       N       E                     dE             d eps       ncg     rms          rms(c)
DAV:   1    -0.129434152717E+03   -0.24654E-04   -0.71954E-03   324   0.438E-01    0.171E-02
DAV:   2    -0.129434161320E+03   -0.86027E-05   -0.12342E-04   259   0.535E-02    0.110E-02
DAV:   3    -0.129434162162E+03   -0.84193E-06   -0.86524E-06   200   0.142E-02    0.574E-03
DAV:   4    -0.129434163281E+03   -0.11197E-05   -0.33245E-06   269   0.886E-03    0.103E-03
DAV:   5    -0.129434163416E+03   -0.13479E-06   -0.91845E-07   190   0.422E-03    0.588E-04
DAV:   6    -0.129434163488E+03   -0.72071E-07   -0.25271E-07   164   0.185E-03
  90 F= -.12943416E+03 E0= -.12943416E+03  d E =-.353760E-04
       N       E                     dE             d eps       ncg     rms          rms(c)
DAV:   1    -0.129434192210E+03   -0.28793E-04   -0.10114E-02   328   0.522E-01    0.198E-02
DAV:   2    -0.129434206048E+03   -0.13838E-04   -0.18860E-04   240   0.652E-02    0.128E-02
DAV:   3    -0.129434207056E+03   -0.10082E-05   -0.12209E-05   236   0.167E-02    0.699E-03
DAV:   4    -0.129434208760E+03   -0.17036E-05   -0.47257E-06   254   0.107E-02    0.122E-03
DAV:   5    -0.129434208969E+03   -0.20972E-06   -0.13948E-06   200   0.511E-03    0.738E-04
DAV:   6    -0.129434209081E+03   -0.11138E-06   -0.40090E-07   164   0.223E-03
  91 F= -.12943421E+03 E0= -.12943421E+03  d E =-.455925E-04
       N       E                     dE             d eps       ncg     rms          rms(c)
DAV:   1    -0.129434240549E+03   -0.31580E-04   -0.13946E-02   328   0.614E-01    0.227E-02
DAV:   2    -0.129434262922E+03   -0.22373E-04   -0.28924E-04   281   0.782E-02    0.148E-02
DAV:   3    -0.129434263448E+03   -0.52599E-06   -0.11886E-05   211   0.175E-02    0.849E-03
DAV:   4    -0.129434265872E+03   -0.24243E-05   -0.53218E-06   236   0.128E-02    0.142E-03
DAV:   5    -0.129434266105E+03   -0.23283E-06   -0.14872E-06   200   0.574E-03    0.975E-04
DAV:   6    -0.129434266264E+03   -0.15904E-06   -0.33249E-07   180   0.240E-03
  92 F= -.12943427E+03 E0= -.12943427E+03  d E =-.571834E-04
       N       E                     dE             d eps       ncg     rms          rms(c)
DAV:   1    -0.129434297426E+03   -0.31321E-04   -0.19693E-02   328   0.730E-01    0.266E-02
DAV:   2    -0.129434332674E+03   -0.35248E-04   -0.44113E-04   338   0.941E-02    0.177E-02
DAV:   3    -0.129434332054E+03    0.62053E-06   -0.88818E-06   226   0.169E-02    0.104E-02
DAV:   4    -0.129434335544E+03   -0.34908E-05   -0.65745E-06   237   0.146E-02    0.175E-03
DAV:   5    -0.129434335871E+03   -0.32694E-06   -0.16727E-06   201   0.650E-03    0.102E-03
DAV:   6    -0.129434336054E+03   -0.18282E-06   -0.22444E-07   164   0.223E-03
  93 F= -.12943434E+03 E0= -.12943434E+03  d E =-.697900E-04
       N       E                     dE             d eps       ncg     rms          rms(c)
DAV:   1    -0.129434362168E+03   -0.26297E-04   -0.28772E-02   330   0.881E-01    0.320E-02
DAV:   2    -0.129434415689E+03   -0.53521E-04   -0.66160E-04   363   0.114E-01    0.216E-02
DAV:   3    -0.129434414032E+03    0.16571E-05   -0.77461E-06   224   0.169E-02    0.128E-02
DAV:   4    -0.129434419330E+03   -0.52983E-05   -0.10116E-05   260   0.176E-02    0.236E-03
DAV:   5    -0.129434419716E+03   -0.38589E-06   -0.21795E-06   201   0.771E-03    0.136E-03
DAV:   6    -0.129434419958E+03   -0.24164E-06   -0.19911E-07   164   0.238E-03
  94 F= -.12943442E+03 E0= -.12943442E+03  d E =-.839038E-04
       N       E                     dE             d eps       ncg     rms          rms(c)
DAV:   1    -0.129434434996E+03   -0.15279E-04   -0.41421E-02   328   0.106E+00    0.387E-02
DAV:   2    -0.129434511772E+03   -0.76777E-04   -0.94806E-04   363   0.137E-01    0.260E-02
DAV:   3    -0.129434509515E+03    0.22577E-05   -0.11132E-05   235   0.202E-02    0.153E-02
DAV:   4    -0.129434517040E+03   -0.75254E-05   -0.14388E-05   268   0.210E-02    0.278E-03
DAV:   5    -0.129434517610E+03   -0.56999E-06   -0.30400E-06   212   0.907E-03    0.157E-03
DAV:   6    -0.129434517968E+03   -0.35792E-06   -0.29125E-07   223   0.283E-03
  95 F= -.12943452E+03 E0= -.12943452E+03  d E =-.980099E-04
       N       E                     dE             d eps       ncg     rms          rms(c)
DAV:   1    -0.129434509103E+03    0.85067E-05   -0.55034E-02   330   0.122E+00    0.456E-02
DAV:   2    -0.129434609831E+03   -0.10073E-03   -0.12608E-03   362   0.159E-01    0.312E-02
DAV:   3    -0.129434606285E+03    0.35455E-05   -0.17048E-05   264   0.250E-02    0.186E-02
DAV:   4    -0.129434615829E+03   -0.95442E-05   -0.22307E-05   232   0.256E-02    0.383E-03
DAV:   5    -0.129434616331E+03   -0.50121E-06   -0.50460E-06   272   0.119E-02    0.214E-03
DAV:   6    -0.129434616707E+03   -0.37654E-06   -0.58480E-07   192   0.378E-03
  96 F= -.12943462E+03 E0= -.12943462E+03  d E =-.987392E-04
       N       E                     dE             d eps       ncg     rms          rms(c)
DAV:   1    -0.129434317999E+03    0.29833E-03   -0.94177E-02   331   0.162E+00    0.704E-02
DAV:   2    -0.129434526147E+03   -0.20815E-03   -0.27148E-03   361   0.236E-01    0.460E-02
DAV:   3    -0.129434507443E+03    0.18704E-04   -0.48841E-05   358   0.406E-02    0.269E-02
DAV:   4    -0.129434508922E+03   -0.14782E-05   -0.48024E-05   264   0.377E-02    0.484E-03
DAV:   5    -0.129434509851E+03   -0.92932E-06   -0.97957E-06   272   0.162E-02    0.328E-03
DAV:   6    -0.129434510804E+03   -0.95297E-06   -0.14198E-06   242   0.606E-03
  97 F= -.12943451E+03 E0= -.12943451E+03  d E =0.105903E-03
       N       E                     dE             d eps       ncg     rms          rms(c)
DAV:   1    -0.129434658614E+03   -0.14876E-03   -0.25967E-02   355   0.823E-01    0.562E-02
DAV:   2    -0.129434742341E+03   -0.83727E-04   -0.11724E-03   369   0.152E-01    0.315E-02
DAV:   3    -0.129434730561E+03    0.11780E-04   -0.31920E-05   300   0.318E-02    0.178E-02
DAV:   4    -0.129434724076E+03    0.64859E-05   -0.25579E-05   265   0.257E-02    0.398E-03
DAV:   5    -0.129434723586E+03    0.48933E-06   -0.57379E-06   304   0.118E-02    0.219E-03
DAV:   6    -0.129434723635E+03   -0.48417E-07   -0.87258E-07   236   0.481E-03
  98 F= -.12943472E+03 E0= -.12943472E+03  d E =-.212831E-03
       N       E                     dE             d eps       ncg     rms          rms(c)
DAV:   1    -0.129434736579E+03   -0.12993E-04   -0.17454E-04   292   0.677E-02    0.401E-03
DAV:   2    -0.129434737954E+03   -0.13747E-05   -0.89128E-06   272   0.151E-02    0.235E-03
DAV:   3    -0.129434738691E+03   -0.73705E-06   -0.97359E-07   205   0.501E-03    0.141E-03
DAV:   4    -0.129434739766E+03   -0.10753E-05   -0.23570E-07   243   0.257E-03    0.402E-04
DAV:   5    -0.129434740356E+03   -0.58989E-06   -0.51242E-08   256   0.127E-03    0.191E-04
DAV:   6    -0.129434740817E+03   -0.46074E-06    0.45375E-09   216   0.684E-04
  99 F= -.12943474E+03 E0= -.12943474E+03  d E =-.171823E-04
       N       E                     dE             d eps       ncg     rms          rms(c)
DAV:   1    -0.129434751387E+03   -0.11031E-04   -0.51286E-04   358   0.116E-01    0.745E-03
DAV:   2    -0.129434753046E+03   -0.16591E-05   -0.20461E-05   226   0.214E-02    0.424E-03
DAV:   3    -0.129434753324E+03   -0.27764E-06   -0.23128E-06   255   0.746E-03    0.224E-03
DAV:   4    -0.129434753615E+03   -0.29116E-06   -0.61316E-07   201   0.385E-03    0.711E-04
DAV:   5    -0.129434753790E+03   -0.17460E-06   -0.15696E-07   264   0.211E-03    0.305E-04
DAV:   6    -0.129434753899E+03   -0.10959E-06   -0.22463E-08   238   0.104E-03
 100 F= -.12943475E+03 E0= -.12943475E+03  d E =-.130824E-04
       N       E                     dE             d eps       ncg     rms          rms(c)
DAV:   1    -0.129434750077E+03    0.37127E-05   -0.57995E-04   373   0.124E-01    0.750E-03
DAV:   2    -0.129434751151E+03   -0.10739E-05   -0.21775E-05   227   0.221E-02    0.441E-03
DAV:   3    -0.129434750922E+03    0.22906E-06   -0.25062E-06   264   0.773E-03    0.237E-03
DAV:   4    -0.129434750622E+03    0.29954E-06   -0.67549E-07   208   0.404E-03    0.742E-04
DAV:   5    -0.129434750551E+03    0.70831E-07   -0.17125E-07   272   0.223E-03    0.327E-04
DAV:   6    -0.129434750605E+03   -0.53291E-07   -0.26369E-08   192   0.110E-03
 101 F= -.12943475E+03 E0= -.12943475E+03  d E =0.329449E-05
       N       E                     dE             d eps       ncg     rms          rms(c)
DAV:   1    -0.129434743446E+03    0.71058E-05   -0.33263E-04   310   0.940E-02    0.446E-03
DAV:   2    -0.129434743985E+03   -0.53931E-06   -0.10305E-05   203   0.160E-02    0.290E-03
DAV:   3    -0.129434743965E+03    0.20494E-07   -0.11840E-06   164   0.565E-03    0.167E-03
DAV:   4    -0.129434743942E+03    0.22721E-07   -0.32772E-07   218   0.308E-03    0.424E-04
DAV:   5    -0.129434744016E+03   -0.73773E-07   -0.57549E-08   164   0.160E-03    0.243E-04
DAV:   6    -0.129434744119E+03   -0.10366E-06    0.54307E-09   200   0.814E-04
 102 F= -.12943474E+03 E0= -.12943474E+03  d E =0.648552E-05
       N       E                     dE             d eps       ncg     rms          rms(c)
DAV:   1    -0.129434747464E+03   -0.34487E-05   -0.25686E-04   298   0.793E-02    0.359E-03
DAV:   2    -0.129434747830E+03   -0.36543E-06   -0.39880E-06   201   0.104E-02    0.222E-03
DAV:   3    -0.129434748065E+03   -0.23485E-06   -0.48711E-07   235   0.391E-03    0.929E-04
DAV:   4    -0.129434748265E+03   -0.20058E-06   -0.10789E-07   239   0.187E-03    0.211E-04
DAV:   5    -0.129434748379E+03   -0.11348E-06   -0.47853E-09   216   0.956E-04    0.113E-04
DAV:   6    -0.129434748455E+03   -0.76456E-07    0.19830E-08   230   0.466E-04
 103 F= -.12943475E+03 E0= -.12943475E+03  d E =-.433586E-05
       N       E                     dE             d eps       ncg     rms          rms(c)
DAV:   1    -0.129434758640E+03   -0.10262E-04   -0.47328E-04   296   0.112E-01    0.537E-03
DAV:   2    -0.129434759598E+03   -0.95757E-06   -0.13910E-05   220   0.187E-02    0.352E-03
DAV:   3    -0.129434759647E+03   -0.49359E-07   -0.16018E-06   264   0.661E-03    0.205E-03
DAV:   4    -0.129434759628E+03    0.18741E-07   -0.46144E-07   210   0.363E-03    0.524E-04
DAV:   5    -0.129434759639E+03   -0.10514E-07   -0.95309E-08   231   0.186E-03    0.283E-04
DAV:   6    -0.129434759657E+03   -0.18285E-07   -0.54185E-09   167   0.899E-04
 104 F= -.12943476E+03 E0= -.12943476E+03  d E =-.112021E-04
       N       E                     dE             d eps       ncg     rms          rms(c)
DAV:   1    -0.129434763700E+03   -0.40613E-05   -0.89152E-04   300   0.155E-01    0.850E-03
DAV:   2    -0.129434765186E+03   -0.14855E-05   -0.26702E-05   219   0.248E-02    0.522E-03
DAV:   3    -0.129434765031E+03    0.15492E-06   -0.31396E-06   272   0.874E-03    0.285E-03
DAV:   4    -0.129434764806E+03    0.22526E-06   -0.87996E-07   200   0.471E-03    0.821E-04
DAV:   5    -0.129434764760E+03    0.45750E-07   -0.20240E-07   256   0.249E-03    0.362E-04
DAV:   6    -0.129434764804E+03   -0.44409E-07   -0.25963E-08   175   0.121E-03
 105 F= -.12943476E+03 E0= -.12943476E+03  d E =-.514702E-05
       N       E                     dE             d eps       ncg     rms          rms(c)
DAV:   1    -0.129434763077E+03    0.16829E-05   -0.73710E-04   331   0.139E-01    0.681E-03
DAV:   2    -0.129434763909E+03   -0.83195E-06   -0.15860E-05   203   0.194E-02    0.432E-03
DAV:   3    -0.129434763910E+03   -0.13320E-08   -0.18936E-06   164   0.692E-03    0.228E-03
DAV:   4    -0.129434763916E+03   -0.60518E-08   -0.52588E-07   208   0.372E-03    0.596E-04
DAV:   5    -0.129434763974E+03   -0.57509E-07   -0.10465E-07   173   0.195E-03    0.284E-04
DAV:   6    -0.129434764056E+03   -0.81762E-07    0.11528E-09   191   0.949E-04
 106 F= -.12943476E+03 E0= -.12943476E+03  d E =0.748734E-06
