 vasp.5.4.1 24Jun15 (build Jan 13 2020 12:58:22) complex                        
  
 executed on           IFC91_ompi date 2020.02.03  09:56:59
 running on   15 total cores
 each image running on    1 cores
 distrk:  each k-point on    1 cores,    1 groups
 distr:  one band on NCORES_PER_BAND=   1 cores,    1 groups


--------------------------------------------------------------------------------------------------------


 INCAR:
 POTCAR:    PAW_PBE H 15Jun2001                   
 POTCAR:    PAW_PBE C 08Apr2002                   
 POTCAR:    PAW_PBE N 08Apr2002                   
 POTCAR:    PAW_PBE O 08Apr2002                   
 POTCAR:    PAW_PBE H 15Jun2001                   
   VRHFIN =H: ultrasoft test                                                    
   LEXCH  = PE                                                                  
   EATOM  =    12.4884 eV,    0.9179 Ry                                         
                                                                                
   TITEL  = PAW_PBE H 15Jun2001                                                 
   LULTRA =        F    use ultrasoft PP ?                                      
   IUNSCR =        0    unscreen: 0-lin 1-nonlin 2-no                           
   RPACOR =    0.000    partial core radius                                     
   POMASS =    1.000; ZVAL   =    1.000    mass and valenz                      
   RCORE  =    1.100    outmost cutoff radius                                   
   RWIGS  =    0.700; RWIGS  =    0.370    wigner-seitz radius (au A)           
   ENMAX  =  250.000; ENMIN  =  200.000 eV                                      
   RCLOC  =    0.701    cutoff for local pot                                    
   LCOR   =        T    correct aug charges                                     
   LPAW   =        T    paw PP                                                  
   EAUG   =  400.000                                                            
   RMAX   =    1.123    core radius for proj-oper                               
   RAUG   =    1.200    factor for augmentation sphere                          
   RDEP   =    1.112    radius for radial grids                                 
   RDEPT  =    0.926    core radius for aug-charge                              
                                                                                
   Atomic configuration                                                         
    2 entries                                                                   
     n  l   j            E        occ.                                          
     1  0  0.50        -6.4927   1.0000                                         
     2  1  0.50        -3.4015   0.0000                                         
   Description                                                                  
     l       E           TYP  RCUT    TYP  RCUT                                 
     0     -6.4927494     23  1.100                                             
     0      6.8029130     23  1.100                                             
     1     -4.0817478     23  1.100                                             
  local pseudopotential read in
  atomic valenz-charges read in
  non local Contribution for L=           0  read in
    real space projection operators read in
  non local Contribution for L=           0  read in
    real space projection operators read in
  non local Contribution for L=           1  read in
    real space projection operators read in
    PAW grid and wavefunctions read in
 
   number of l-projection  operators is LMAX  =           3
   number of lm-projection operators is LMMAX =           5
 
 POTCAR:    PAW_PBE C 08Apr2002                   
   VRHFIN =C: s2p2                                                              
   LEXCH  = PE                                                                  
   EATOM  =   147.1560 eV,   10.8157 Ry                                         
                                                                                
   TITEL  = PAW_PBE C 08Apr2002                                                 
   LULTRA =        F    use ultrasoft PP ?                                      
   IUNSCR =        1    unscreen: 0-lin 1-nonlin 2-no                           
   RPACOR =    1.200    partial core radius                                     
   POMASS =   12.011; ZVAL   =    4.000    mass and valenz                      
   RCORE  =    1.500    outmost cutoff radius                                   
   RWIGS  =    1.630; RWIGS  =    0.863    wigner-seitz radius (au A)           
   ENMAX  =  400.000; ENMIN  =  300.000 eV                                      
   ICORE  =        2    local potential                                         
   LCOR   =        T    correct aug charges                                     
   LPAW   =        T    paw PP                                                  
   EAUG   =  644.873                                                            
   DEXC   =    0.000                                                            
   RMAX   =    1.529    core radius for proj-oper                               
   RAUG   =    1.300    factor for augmentation sphere                          
   RDEP   =    1.501    radius for radial grids                                 
   RDEPT  =    1.300    core radius for aug-charge                              
                                                                                
   Atomic configuration                                                         
    4 entries                                                                   
     n  l   j            E        occ.                                          
     1  0  0.50      -273.3789   2.0000                                         
     2  0  0.50       -13.7508   2.0000                                         
     2  1  0.50        -5.2854   2.0000                                         
     3  2  1.50        -5.4423   0.0000                                         
   Description                                                                  
     l       E           TYP  RCUT    TYP  RCUT                                 
     0    -13.7508458     23  1.200                                             
     0     -8.2022199     23  1.200                                             
     1     -5.2854383     23  1.500                                             
     1     34.0145650     23  1.500                                             
     2     -5.4423304      7  1.500                                             
  local pseudopotential read in
  partial core-charges read in
  partial kinetic energy density read in
  atomic valenz-charges read in
  non local Contribution for L=           0  read in
    real space projection operators read in
  non local Contribution for L=           0  read in
    real space projection operators read in
  non local Contribution for L=           1  read in
    real space projection operators read in
  non local Contribution for L=           1  read in
    real space projection operators read in
    PAW grid and wavefunctions read in
 
   number of l-projection  operators is LMAX  =           4
   number of lm-projection operators is LMMAX =           8
 
 POTCAR:    PAW_PBE N 08Apr2002                   
   VRHFIN =N: s2p3                                                              
   LEXCH  = PE                                                                  
   EATOM  =   264.5486 eV,   19.4438 Ry                                         
                                                                                
   TITEL  = PAW_PBE N 08Apr2002                                                 
   LULTRA =        F    use ultrasoft PP ?                                      
   IUNSCR =        1    unscreen: 0-lin 1-nonlin 2-no                           
   RPACOR =    1.200    partial core radius                                     
   POMASS =   14.001; ZVAL   =    5.000    mass and valenz                      
   RCORE  =    1.500    outmost cutoff radius                                   
   RWIGS  =    1.400; RWIGS  =    0.741    wigner-seitz radius (au A)           
   ENMAX  =  400.000; ENMIN  =  300.000 eV                                      
   ICORE  =        2    local potential                                         
   LCOR   =        T    correct aug charges                                     
   LPAW   =        T    paw PP                                                  
   EAUG   =  627.112                                                            
   DEXC   =    0.000                                                            
   RMAX   =    1.529    core radius for proj-oper                               
   RAUG   =    1.300    factor for augmentation sphere                          
   RDEP   =    1.514    radius for radial grids                                 
   RDEPT  =    1.338    core radius for aug-charge                              
                                                                                
   Atomic configuration                                                         
    4 entries                                                                   
     n  l   j            E        occ.                                          
     1  0  0.50      -384.7179   2.0000                                         
     2  0  0.50       -18.5828   2.0000                                         
     2  1  0.50        -7.0898   3.0000                                         
     3  2  1.50        -6.8029   0.0000                                         
   Description                                                                  
     l       E           TYP  RCUT    TYP  RCUT                                 
     0    -18.5828119     23  1.200                                             
     0    -13.5018863     23  1.200                                             
     1     -7.0897853     23  1.500                                             
     1      9.5240782     23  1.500                                             
     2     -6.8029130      7  1.500                                             
  local pseudopotential read in
  partial core-charges read in
  partial kinetic energy density read in
  atomic valenz-charges read in
  non local Contribution for L=           0  read in
    real space projection operators read in
  non local Contribution for L=           0  read in
    real space projection operators read in
  non local Contribution for L=           1  read in
    real space projection operators read in
  non local Contribution for L=           1  read in
    real space projection operators read in
    PAW grid and wavefunctions read in
 
   number of l-projection  operators is LMAX  =           4
   number of lm-projection operators is LMMAX =           8
 
 POTCAR:    PAW_PBE O 08Apr2002                   
   VRHFIN =O: s2p4                                                              
   LEXCH  = PE                                                                  
   EATOM  =   432.3788 eV,   31.7789 Ry                                         
                                                                                
   TITEL  = PAW_PBE O 08Apr2002                                                 
   LULTRA =        F    use ultrasoft PP ?                                      
   IUNSCR =        1    unscreen: 0-lin 1-nonlin 2-no                           
   RPACOR =    1.200    partial core radius                                     
   POMASS =   16.000; ZVAL   =    6.000    mass and valenz                      
   RCORE  =    1.520    outmost cutoff radius                                   
   RWIGS  =    1.550; RWIGS  =    0.820    wigner-seitz radius (au A)           
   ENMAX  =  400.000; ENMIN  =  300.000 eV                                      
   ICORE  =        2    local potential                                         
   LCOR   =        T    correct aug charges                                     
   LPAW   =        T    paw PP                                                  
   EAUG   =  605.392                                                            
   DEXC   =    0.000                                                            
   RMAX   =    1.553    core radius for proj-oper                               
   RAUG   =    1.300    factor for augmentation sphere                          
   RDEP   =    1.550    radius for radial grids                                 
   RDEPT  =    1.329    core radius for aug-charge                              
                                                                                
   Atomic configuration                                                         
    4 entries                                                                   
     n  l   j            E        occ.                                          
     1  0  0.50      -514.6923   2.0000                                         
     2  0  0.50       -23.9615   2.0000                                         
     2  1  0.50        -9.0305   4.0000                                         
     3  2  1.50        -9.5241   0.0000                                         
   Description                                                                  
     l       E           TYP  RCUT    TYP  RCUT                                 
     0    -23.9615318     23  1.200                                             
     0     -9.5240782     23  1.200                                             
     1     -9.0304911     23  1.520                                             
     1      8.1634956     23  1.520                                             
     2     -9.5240782      7  1.500                                             
  local pseudopotential read in
  partial core-charges read in
  partial kinetic energy density read in
  kinetic energy density of atom read in
  atomic valenz-charges read in
  non local Contribution for L=           0  read in
    real space projection operators read in
  non local Contribution for L=           0  read in
    real space projection operators read in
  non local Contribution for L=           1  read in
    real space projection operators read in
  non local Contribution for L=           1  read in
    real space projection operators read in
    PAW grid and wavefunctions read in
 
   number of l-projection  operators is LMAX  =           4
   number of lm-projection operators is LMMAX =           8
 
 Optimization of the real space projectors (new method)

 maximal supplied QI-value         = 34.20
 optimisation between [QCUT,QGAM] = [  9.92, 20.18] = [ 27.55,114.04] Ry 
 Optimized for a Real-space Cutoff    1.26 Angstroem

   l    n(q)    QCUT    max X(q) W(low)/X(q) W(high)/X(q)  e(spline) 
   0      8     9.919    19.460    0.50E-03    0.23E-03    0.29E-06
   0      8     9.919    12.209    0.48E-03    0.23E-03    0.28E-06
   1      7     9.919     4.655    0.17E-03    0.75E-03    0.30E-06
 Optimization of the real space projectors (new method)

 maximal supplied QI-value         = 25.13
 optimisation between [QCUT,QGAM] = [ 10.05, 20.36] = [ 28.30,116.06] Ry 
 Optimized for a Real-space Cutoff    1.30 Angstroem

   l    n(q)    QCUT    max X(q) W(low)/X(q) W(high)/X(q)  e(spline) 
   0      8    10.053   115.676    0.49E-03    0.72E-03    0.18E-06
   0      8    10.053    87.132    0.49E-03    0.71E-03    0.18E-06
   1      7    10.053     4.429    0.32E-03    0.31E-03    0.18E-06
   1      7    10.053     2.733    0.23E-03    0.19E-03    0.20E-06
 Optimization of the real space projectors (new method)

 maximal supplied QI-value         = 25.13
 optimisation between [QCUT,QGAM] = [ 10.05, 20.36] = [ 28.30,116.06] Ry 
 Optimized for a Real-space Cutoff    1.65 Angstroem

   l    n(q)    QCUT    max X(q) W(low)/X(q) W(high)/X(q)  e(spline) 
   0     10    10.053    79.467    0.76E-04    0.72E-04    0.56E-06
   0     10    10.053    66.151    0.76E-04    0.72E-04    0.55E-06
   1     10    10.053     8.350    0.25E-03    0.92E-03    0.41E-05
   1     10    10.053     5.531    0.27E-03    0.10E-02    0.45E-05
 Optimization of the real space projectors (new method)

 maximal supplied QI-value         = 24.76
 optimisation between [QCUT,QGAM] = [ 10.15, 20.30] = [ 28.85,115.39] Ry 
 Optimized for a Real-space Cutoff    1.38 Angstroem

   l    n(q)    QCUT    max X(q) W(low)/X(q) W(high)/X(q)  e(spline) 
   0      8    10.150    20.381    0.22E-03    0.32E-03    0.29E-06
   0      8    10.150    15.268    0.23E-03    0.35E-03    0.30E-06
   1      8    10.150     5.964    0.46E-03    0.53E-03    0.21E-06
   1      8    10.150     5.382    0.38E-03    0.45E-03    0.19E-06
  PAW_PBE H 15Jun2001                   :
 energy of atom  1       EATOM=  -12.4884
 kinetic energy error for atom=    0.0098 (will be added to EATOM!!)
  PAW_PBE C 08Apr2002                   :
 energy of atom  2       EATOM= -147.1560
 kinetic energy error for atom=    0.0288 (will be added to EATOM!!)
  PAW_PBE N 08Apr2002                   :
 energy of atom  3       EATOM= -264.5486
 kinetic energy error for atom=    0.0736 (will be added to EATOM!!)
  PAW_PBE O 08Apr2002                   :
 energy of atom  4       EATOM= -432.3788
 kinetic energy error for atom=    0.1156 (will be added to EATOM!!)
 
 
 POSCAR: H12 C6 N2 O2                            
  positions in direct lattice
  velocities in cartesian coordinates
 exchange correlation table for  LEXCH =        8
   RHO(1)=    0.500       N(1)  =     2000
   RHO(2)=  100.500       N(2)  =     4000

 VTST: version 3.2, (02/03/18)

 CHAIN: initializing optimizer
 
 OPT: Using FIRE optimizer
 OPT: FIRE, Init
 OPT: FIRE, MAXMOVE       0.20000
 OPT: FIRE, TIMESTEP      0.10000
 OPT: FIRE, FTIMEMAX      1.00000
 OPT: FIRE, FTIMEINC      1.10000
 OPT: FIRE, FTIMEDEC      0.50000
 OPT: FIRE, FALPHADEC     0.99000
 OPT: FIRE, FALPHA        0.10000
 OPT: FIRE, FNMIN         5
 
 CHAIN: Read ICHAIN            0
 CHAIN: Running the NEB
 NEB:          SPRING     -5.000000
 NEB:          LCLIMB      T
 NEB:     LTANGENTOLD      F
 NEB:           LDNEB      F
 NEB:        LDNEBORG      F
 NEB:        LNEBCELL      F
 NEB:          EFIRST      0.000000
 NEB:           ELAST      0.000000
 
 POSCAR: H12 C6 N2 O2                            
  positions in direct lattice
  No initial velocities read in
 
 POSCAR: H12 C6 N2 O2                            
  positions in direct lattice
  No initial velocities read in
 


--------------------------------------------------------------------------------------------------------


 ion  position               nearest neighbor table
   1  0.378  0.535  0.496-  13 1.10
   2  0.378  0.481  0.472-  13 1.10
   3  0.386  0.487  0.530-  13 1.10
   4  0.450  0.441  0.510-  19 1.02
   5  0.521  0.426  0.502-  15 1.10
   6  0.564  0.456  0.439-  16 1.10
   7  0.523  0.498  0.429-  16 1.10
   8  0.509  0.440  0.422-  16 1.10
   9  0.516  0.545  0.504-  20 1.03
  10  0.564  0.556  0.585-  18 1.10
  11  0.606  0.553  0.543-  18 1.10
  12  0.564  0.595  0.540-  18 1.10
  13  0.393  0.502  0.497-   1 1.10   3 1.10   2 1.10  14 1.52
  14  0.443  0.506  0.490-  21 1.24  19 1.36  13 1.52
  15  0.515  0.460  0.491-   5 1.10  19 1.47  16 1.53  17 1.55
  16  0.529  0.464  0.442-   7 1.10   6 1.10   8 1.10  15 1.53
  17  0.547  0.487  0.522-  22 1.24  20 1.35  15 1.55
  18  0.570  0.560  0.549-  12 1.10  11 1.10  10 1.10  20 1.45
  19  0.467  0.468  0.498-   4 1.02  14 1.36  15 1.47
  20  0.542  0.532  0.522-   9 1.03  17 1.35  18 1.45
  21  0.460  0.541  0.477-  14 1.24
  22  0.575  0.467  0.544-  17 1.24
 
  LATTYP: Found a simple cubic cell.
 ALAT       =    30.0000000000
  
  Lattice vectors:
  
 A1 = (  30.0000000000,   0.0000000000,   0.0000000000)
 A2 = (   0.0000000000,  30.0000000000,   0.0000000000)
 A3 = (   0.0000000000,   0.0000000000,  30.0000000000)


Analysis of symmetry for initial positions (statically):
=====================================================================
 Subroutine PRICEL returns:
 Original cell was already a primitive cell.
 

 Routine SETGRP: Setting up the symmetry group for a 
 simple cubic supercell.


 Subroutine GETGRP returns: Found  1 space group operations
 (whereof  1 operations were pure point group operations)
 out of a pool of 48 trial point group operations.


The static configuration has the point symmetry C_1 .


Analysis of symmetry for dynamics (positions and initial velocities):
=====================================================================
 Subroutine PRICEL returns:
 Original cell was already a primitive cell.
 

 Routine SETGRP: Setting up the symmetry group for a 
 simple cubic supercell.


 Subroutine GETGRP returns: Found  1 space group operations
 (whereof  1 operations were pure point group operations)
 out of a pool of 48 trial point group operations.


The dynamic configuration has the point symmetry C_1 .
 
 
 KPOINTS: Mo2C                                    

Automatic generation of k-mesh.
Space group operators:
 irot       det(A)        alpha          n_x          n_y          n_z        tau_x        tau_y        tau_z
    1     1.000000     0.000000     1.000000     0.000000     0.000000     0.000000     0.000000     0.000000
 
 Subroutine IBZKPT returns following result:
 ===========================================
 
 Found      4 irreducible k-points:
 
 Following reciprocal coordinates:
            Coordinates               Weight
  0.250000  0.250000  0.250000      2.000000
 -0.250000  0.250000  0.250000      2.000000
  0.250000 -0.250000  0.250000      2.000000
 -0.250000 -0.250000  0.250000      2.000000
 
 Following cartesian coordinates:
            Coordinates               Weight
  0.008333  0.008333  0.008333      2.000000
 -0.008333  0.008333  0.008333      2.000000
  0.008333 -0.008333  0.008333      2.000000
 -0.008333 -0.008333  0.008333      2.000000
 


--------------------------------------------------------------------------------------------------------




 Dimension of arrays:
   k-points           NKPTS =      4   k-points in BZ     NKDIM =      4   number of bands    NBANDS=     41
   number of dos      NEDOS =    301   number of ions     NIONS =     22
   non local maximal  LDIM  =      4   non local SUM 2l+1 LMDIM =      8
   total plane-waves  NPLWV = ******
   max r-space proj   IRMAX =   2395   max aug-charges    IRDMAX=   1821
   dimension x,y,z NGX =   150 NGY =  150 NGZ =  150
   dimension x,y,z NGXF=   300 NGYF=  300 NGZF=  300
   support grid    NGXF=   300 NGYF=  300 NGZF=  300
   ions per type =              12   6   2   2
 NGX,Y,Z   is equivalent  to a cutoff of   8.31,  8.31,  8.31 a.u.
 NGXF,Y,Z  is equivalent  to a cutoff of  16.62, 16.62, 16.62 a.u.


 I would recommend the setting:
   dimension x,y,z NGX =   147 NGY =  147 NGZ =  147
 SYSTEM =  unknown system                          
 POSCAR =  H12 C6 N2 O2                            

 Startparameter for this run:
   NWRITE =      2    write-flag & timer
   PREC   = normal    normal or accurate (medium, high low for compatibility)
   ISTART =      0    job   : 0-new  1-cont  2-samecut
   ICHARG =      2    charge: 1-file 2-atom 10-const
   ISPIN  =      1    spin polarized calculation?
   LNONCOLLINEAR =      F non collinear calculations
   LSORBIT =      F    spin-orbit coupling
   INIWAV =      1    electr: 0-lowe 1-rand  2-diag
   LASPH  =      F    aspherical Exc in radial PAW
   METAGGA=      F    non-selfconsistent MetaGGA calc.

 Electronic Relaxation 1
   ENCUT  =  400.0 eV  29.40 Ry    5.42 a.u.  48.92 48.92 48.92*2*pi/ulx,y,z
   ENINI  =  400.0     initial cutoff
   ENAUG  =  644.9 eV  augmentation charge cutoff
   NELM   =    500;   NELMIN=  6; NELMDL= -5     # of ELM steps 
   EDIFF  = 0.1E-03   stopping-criterion for ELM
   LREAL  =      T    real-space projection
   NLSPLINE    = F    spline interpolate recip. space projectors
   LCOMPAT=      F    compatible to vasp.4.4
   GGA_COMPAT  = T    GGA compatible to vasp.4.4-vasp.4.6
   LMAXPAW     = -100 max onsite density
   LMAXMIX     =    2 max onsite mixed and CHGCAR
   VOSKOWN=      0    Vosko Wilk Nusair interpolation
   ROPT   =   -0.00050  -0.00050  -0.00050  -0.00050
 Ionic relaxation
   EDIFFG = -.1E+00   stopping-criterion for IOM
   NSW    =    300    number of steps for IOM
   NBLOCK =      1;   KBLOCK =    300    inner block; outer block 
   IBRION =      3    ionic relax: 0-MD 1-quasi-New 2-CG
   NFREE  =      0    steps in history (QN), initial steepest desc. (CG)
   ISIF   =      2    stress and relaxation
   IWAVPR =     11    prediction:  0-non 1-charg 2-wave 3-comb
   ISYM   =      2    0-nonsym 1-usesym 2-fastsym
   LCORR  =      T    Harris-Foulkes like correction to forces

   POTIM  = 0.0000    time-step for ionic-motion
   TEIN   =    0.0    initial temperature
   TEBEG  =    0.0;   TEEND  =   0.0 temperature during run
   SMASS  =   2.00    Nose mass-parameter (am)
   estimated Nose-frequenzy (Omega)   =  0.24E+10 period in steps =  0.00 mass=   0.137E-25a.u.
   SCALEE = 1.0000    scale energy and forces
   NPACO  =    256;   APACO  = 16.0  distance and # of slots for P.C.
   PSTRESS=    0.0 pullay stress

  Mass of Ions in am
   POMASS =   1.00 12.01 14.00 16.00
  Ionic Valenz
   ZVAL   =   1.00  4.00  5.00  6.00
  Atomic Wigner-Seitz radii
   RWIGS  =  -1.00 -1.00 -1.00 -1.00
  virtual crystal weights 
   VCA    =   1.00  1.00  1.00  1.00
   NELECT =      58.0000    total number of electrons
   NUPDOWN=      -1.0000    fix difference up-down

 DOS related values:
   EMIN   =  10.00;   EMAX   =-10.00  energy-range for DOS
   EFERMI =   0.00
   ISMEAR =     0;   SIGMA  =   0.20  broadening in eV -4-tet -1-fermi 0-gaus

 Electronic relaxation 2 (details)
   IALGO  =     38    algorithm
   LDIAG  =      T    sub-space diagonalisation (order eigenvalues)
   LSUBROT=      F    optimize rotation matrix (better conditioning)
   TURBO    =      0    0=normal 1=particle mesh
   IRESTART =      0    0=no restart 2=restart with 2 vectors
   NREBOOT  =      0    no. of reboots
   NMIN     =      0    reboot dimension
   EREF     =   0.00    reference energy to select bands
   IMIX   =      4    mixing-type and parameters
     AMIX     =   0.40;   BMIX     =  1.00
     AMIX_MAG =   1.60;   BMIX_MAG =  1.00
     AMIN     =   0.10
     WC   =   100.;   INIMIX=   1;  MIXPRE=   1;  MAXMIX= -45

 Intra band minimization:
   WEIMIN = 0.0010     energy-eigenvalue tresh-hold
   EBREAK =  0.61E-06  absolut break condition
   DEPER  =   0.30     relativ break condition  

   TIME   =   0.40     timestep for ELM

  volume/ion in A,a.u.               =    1227.27      8282.05
  Fermi-wavevector in a.u.,A,eV,Ry     =   0.211234  0.399174  0.607087  0.044620
  Thomas-Fermi vector in A             =   0.980021
 
 Write flags
   LWAVE  =      F    write WAVECAR
   LCHARG =      F    write CHGCAR
   LVTOT  =      F    write LOCPOT, total local potential
   LVHAR  =      F    write LOCPOT, Hartree potential only
   LELF   =      F    write electronic localiz. function (ELF)
   LORBIT =      0    0 simple, 1 ext, 2 COOP (PROOUT)


 Dipole corrections
   LMONO  =      F    monopole corrections only (constant potential shift)
   LDIPOL =      F    correct potential (dipole corrections)
   IDIPOL =      0    1-x, 2-y, 3-z, 4-all directions 
   EPSILON=  1.0000000 bulk dielectric constant

 Exchange correlation treatment:
   GGA     =    PE    GGA type
   LEXCH   =     8    internal setting for exchange type
   VOSKOWN=      0    Vosko Wilk Nusair interpolation
   LHFCALC =     F    Hartree Fock is set to
   LHFONE  =     F    Hartree Fock one center treatment
   AEXX    =    0.0000 exact exchange contribution

 Linear response parameters
   LEPSILON=     F    determine dielectric tensor
   LRPA    =     F    only Hartree local field effects (RPA)
   LNABLA  =     F    use nabla operator in PAW spheres
   LVEL    =     F    velocity operator in full k-point grid
   LINTERFAST=   F  fast interpolation
   KINTER  =     0    interpolate to denser k-point grid
   CSHIFT  =0.1000    complex shift for real part using Kramers Kronig
   OMEGAMAX=  -1.0    maximum frequency
   DEG_THRESHOLD= 0.2000000E-02 threshold for treating states as degnerate
   RTIME   =    0.100 relaxation time in fs

 Orbital magnetization related:
   ORBITALMAG=     F  switch on orbital magnetization
   LCHIMAG   =     F  perturbation theory with respect to B field
   DQ        =  0.001000  dq finite difference perturbation B field



--------------------------------------------------------------------------------------------------------


 quickmin algorithm: (dynamic with friction)
 charge density and potential will be updated during run
 non-spin polarized calculation
 Variant of blocked Davidson
 Davidson routine will perform the subspace rotation
 perform sub-space diagonalisation
    after iterative eigenvector-optimisation
 modified Broyden-mixing scheme, WC =      100.0
 initial mixing is a Kerker type mixing with AMIX =  0.4000 and BMIX =      1.0000
 Hartree-type preconditioning will be used
 using additional bands           12
 real space projection scheme for non local part
 use partial core corrections
 calculate Harris-corrections to forces 
   (improved forces if not selfconsistent)
 use gradient corrections 
 use of overlap-Matrix (Vanderbilt PP)
 Gauss-broadening in eV      SIGMA  =   0.20


--------------------------------------------------------------------------------------------------------


  energy-cutoff  :      400.00
  volume of cell :    27000.00
      direct lattice vectors                 reciprocal lattice vectors
    30.000000000  0.000000000  0.000000000     0.033333333  0.000000000  0.000000000
     0.000000000 30.000000000  0.000000000     0.000000000  0.033333333  0.000000000
     0.000000000  0.000000000 30.000000000     0.000000000  0.000000000  0.033333333

  length of vectors
    30.000000000 30.000000000 30.000000000     0.033333333  0.033333333  0.033333333


 
 k-points in units of 2pi/SCALE and weight: Mo2C                                    
   0.00833333  0.00833333  0.00833333       0.250
  -0.00833333  0.00833333  0.00833333       0.250
   0.00833333 -0.00833333  0.00833333       0.250
  -0.00833333 -0.00833333  0.00833333       0.250
 
 k-points in reciprocal lattice and weights: Mo2C                                    
   0.25000000  0.25000000  0.25000000       0.250
  -0.25000000  0.25000000  0.25000000       0.250
   0.25000000 -0.25000000  0.25000000       0.250
  -0.25000000 -0.25000000  0.25000000       0.250
 
 position of ions in fractional coordinates (direct lattice) 
   0.37844405  0.53507591  0.49589228
   0.37784475  0.48082879  0.47155257
   0.38554633  0.48668773  0.53003706
   0.44950582  0.44127053  0.50962530
   0.52062941  0.42586767  0.50184080
   0.56413900  0.45559671  0.43855507
   0.52332462  0.49777460  0.42868438
   0.50937199  0.44034869  0.42153303
   0.51599033  0.54521474  0.50350104
   0.56423611  0.55571595  0.58463555
   0.60569048  0.55271134  0.54252672
   0.56389102  0.59530605  0.54001035
   0.39324106  0.50174147  0.49748130
   0.44312560  0.50567568  0.48982137
   0.51496635  0.46035910  0.49099949
   0.52862395  0.46405549  0.44184861
   0.54650432  0.48718526  0.52195935
   0.57037251  0.56037828  0.54871224
   0.46696873  0.46800244  0.49834146
   0.54185426  0.53202377  0.52180860
   0.46049506  0.54098846  0.47671160
   0.57523818  0.46719241  0.54391966
 
 position of ions in cartesian coordinates  (Angst):
  11.35332163 16.05227731 14.87676847
  11.33534237 14.42486382 14.14657707
  11.56638980 14.60063187 15.90111170
  13.48517452 13.23811594 15.28875901
  15.61888217 12.77603025 15.05522408
  16.92416993 13.66790120 13.15665202
  15.69973873 14.93323799 12.86053146
  15.28115984 13.21046078 12.64599090
  15.47970984 16.35644205 15.10503133
  16.92708333 16.67147844 17.53906661
  18.17071427 16.58134012 16.27580172
  16.91673064 17.85918143 16.20031063
  11.79723192 15.05224406 14.92443897
  13.29376803 15.17027049 14.69464102
  15.44899045 13.81077297 14.72998461
  15.85871843 13.92166484 13.25545836
  16.39512949 14.61555772 15.65878055
  17.11117538 16.81134826 16.46136729
  14.00906184 14.04007331 14.95024367
  16.25562786 15.96071319 15.65425786
  13.81485185 16.22965389 14.30134810
  17.25714536 14.01577240 16.31758989
 


--------------------------------------------------------------------------------------------------------


 k-point  1 :   0.2500 0.2500 0.2500  plane waves:  490454
 k-point  2 :  -0.2500 0.2500 0.2500  plane waves:  490454
 k-point  3 :   0.2500-0.2500 0.2500  plane waves:  490454
 k-point  4 :  -0.2500-0.2500 0.2500  plane waves:  490454

 maximum and minimum number of plane-waves per node :    490454   490454

 maximum number of plane-waves:    490454
 maximum index in each direction: 
   IXMAX=   49   IYMAX=   49   IZMAX=   48
   IXMIN=  -49   IYMIN=  -49   IZMIN=  -49

 WARNING: aliasing errors must be expected set NGX to 198 to avoid them
 WARNING: aliasing errors must be expected set NGY to 198 to avoid them
 WARNING: aliasing errors must be expected set NGZ to 196 to avoid them
 aliasing errors are usually negligible using standard VASP settings
 and one can safely disregard these warnings

 serial   3D FFT for wavefunctions
 parallel 3D FFT for charge:
    minimum data exchange during FFTs selected (reduces bandwidth)


 total amount of memory used by VASP on root node  4333707. kBytes
========================================================================

   base      :      30000. kBytes
   nonlr-proj:       2402. kBytes
   fftplans  :     924480. kBytes
   grid      :    2089440. kBytes
   one-center:         67. kBytes
   wavefun   :    1287318. kBytes
 
     INWAV:  cpu time    0.0010: real time    0.0004
 Broyden mixing: mesh for mixing (old mesh)
   NGX = 97   NGY = 97   NGZ = 97
  (NGX  =300   NGY  =300   NGZ  =300)
  gives a total of 912673 points

 initial charge density was supplied:
 charge density of overlapping atoms calculated
 number of electron      58.0000000 magnetization 
 keeping initial charge density in first step


--------------------------------------------------------------------------------------------------------


 Maximum index for non-local projection operator         2277
 Maximum index for augmentation-charges         1571 (set IRDMAX)


--------------------------------------------------------------------------------------------------------


 First call to EWALD:  gamma=   0.059
 Maximum number of real-space cells 3x 3x 3
 Maximum number of reciprocal cells 3x 3x 3

 FEWALD executed in parallel
    FEWALD:  cpu time    0.0050: real time    0.0048


----------------------------------------- Iteration    1(   1)  ---------------------------------------


    POTLOK:  cpu time   21.3538: real time   21.3403
    SETDIJ:  cpu time    0.0290: real time    0.0289
     EDDAV:  cpu time  284.5997: real time  284.3906
       DOS:  cpu time    0.0000: real time    0.0009
    --------------------------------------------
      LOOP:  cpu time  305.9845: real time  305.7651

 eigenvalue-minimisations  :   408
 total energy-change (2. order) : 0.5795982E+03  (-0.8272054E+03)
 number of electron      58.0000000 magnetization 
 augmentation part       58.0000000 magnetization 

 Free energy of the ion-electron system (eV)
  ---------------------------------------------------
  alpha Z        PSCENC =         0.51957394
  Ewald energy   TEWEN  =      6109.51178646
  -Hartree energ DENC   =     -7852.72086381
  -exchange      EXHF   =         0.00000000
  -V(xc)+E(xc)   XCENC  =       201.98299562
  PAW double counting   =      1779.70502452    -1789.20730229
  entropy T*S    EENTRO =        -0.79275595
  eigenvalues    EBANDS =      -295.38359885
  atomic energy  EATOM  =      2425.98333211
  Solvation  Ediel_sol  =         0.00000000
  ---------------------------------------------------
  free energy    TOTEN  =       579.59819174 eV

  energy without entropy =      580.39094769  energy(sigma->0) =      579.99456972


--------------------------------------------------------------------------------------------------------




----------------------------------------- Iteration    1(   2)  ---------------------------------------


     EDDAV:  cpu time  376.8867: real time  376.6122
       DOS:  cpu time    0.0000: real time    0.0008
    --------------------------------------------
      LOOP:  cpu time  376.8887: real time  376.6158

 eigenvalue-minimisations  :   572
 total energy-change (2. order) :-0.3296282E+03  (-0.3198044E+03)
 number of electron      58.0000000 magnetization 
 augmentation part       58.0000000 magnetization 

 Free energy of the ion-electron system (eV)
  ---------------------------------------------------
  alpha Z        PSCENC =         0.51957394
  Ewald energy   TEWEN  =      6109.51178646
  -Hartree energ DENC   =     -7852.72086381
  -exchange      EXHF   =         0.00000000
  -V(xc)+E(xc)   XCENC  =       201.98299562
  PAW double counting   =      1779.70502452    -1789.20730229
  entropy T*S    EENTRO =        -0.45653173
  eigenvalues    EBANDS =      -625.34797541
  atomic energy  EATOM  =      2425.98333211
  Solvation  Ediel_sol  =         0.00000000
  ---------------------------------------------------
  free energy    TOTEN  =       249.97003941 eV

  energy without entropy =      250.42657113  energy(sigma->0) =      250.19830527


--------------------------------------------------------------------------------------------------------




----------------------------------------- Iteration    1(   3)  ---------------------------------------


     EDDAV:  cpu time  332.2705: real time  332.0279
       DOS:  cpu time    0.0000: real time    0.0005
    --------------------------------------------
      LOOP:  cpu time  332.2725: real time  332.0317

 eigenvalue-minimisations  :   496
 total energy-change (2. order) :-0.3015969E+03  (-0.2920566E+03)
 number of electron      58.0000000 magnetization 
 augmentation part       58.0000000 magnetization 

 Free energy of the ion-electron system (eV)
  ---------------------------------------------------
  alpha Z        PSCENC =         0.51957394
  Ewald energy   TEWEN  =      6109.51178646
  -Hartree energ DENC   =     -7852.72086381
  -exchange      EXHF   =         0.00000000
  -V(xc)+E(xc)   XCENC  =       201.98299562
  PAW double counting   =      1779.70502452    -1789.20730229
  entropy T*S    EENTRO =        -0.00000009
  eigenvalues    EBANDS =      -927.40137795
  atomic energy  EATOM  =      2425.98333211
  Solvation  Ediel_sol  =         0.00000000
  ---------------------------------------------------
  free energy    TOTEN  =       -51.62683150 eV

  energy without entropy =      -51.62683140  energy(sigma->0) =      -51.62683145


--------------------------------------------------------------------------------------------------------




----------------------------------------- Iteration    1(   4)  ---------------------------------------


     EDDAV:  cpu time  278.1287: real time  277.9264
       DOS:  cpu time    0.0000: real time    0.0005
    --------------------------------------------
      LOOP:  cpu time  278.1297: real time  277.9301

 eigenvalue-minimisations  :   397
 total energy-change (2. order) :-0.8567584E+02  (-0.8555721E+02)
 number of electron      58.0000000 magnetization 
 augmentation part       58.0000000 magnetization 

 Free energy of the ion-electron system (eV)
  ---------------------------------------------------
  alpha Z        PSCENC =         0.51957394
  Ewald energy   TEWEN  =      6109.51178646
  -Hartree energ DENC   =     -7852.72086381
  -exchange      EXHF   =         0.00000000
  -V(xc)+E(xc)   XCENC  =       201.98299562
  PAW double counting   =      1779.70502452    -1789.20730229
  entropy T*S    EENTRO =         0.00000000
  eigenvalues    EBANDS =     -1013.07722029
  atomic energy  EATOM  =      2425.98333211
  Solvation  Ediel_sol  =         0.00000000
  ---------------------------------------------------
  free energy    TOTEN  =      -137.30267374 eV

  energy without entropy =     -137.30267374  energy(sigma->0) =     -137.30267374


--------------------------------------------------------------------------------------------------------




----------------------------------------- Iteration    1(   5)  ---------------------------------------


     EDDAV:  cpu time  318.2346: real time  318.0038
       DOS:  cpu time    0.0000: real time    0.0005
    CHARGE:  cpu time   18.0573: real time   18.0436
    MIXING:  cpu time    0.6289: real time    0.6289
    --------------------------------------------
      LOOP:  cpu time  336.9218: real time  336.6802

 eigenvalue-minimisations  :   464
 total energy-change (2. order) :-0.4564160E+01  (-0.4553747E+01)
 number of electron      58.0000001 magnetization 
 augmentation part        2.9710062 magnetization 

 Broyden mixing:
  rms(total) = 0.19552E+01    rms(broyden)= 0.19530E+01
  rms(prec ) = 0.20306E+01
  weight for this iteration     100.00

 Free energy of the ion-electron system (eV)
  ---------------------------------------------------
  alpha Z        PSCENC =         0.51957394
  Ewald energy   TEWEN  =      6109.51178646
  -Hartree energ DENC   =     -7852.72086381
  -exchange      EXHF   =         0.00000000
  -V(xc)+E(xc)   XCENC  =       201.98299562
  PAW double counting   =      1779.70502452    -1789.20730229
  entropy T*S    EENTRO =         0.00000000
  eigenvalues    EBANDS =     -1017.64138049
  atomic energy  EATOM  =      2425.98333211
  Solvation  Ediel_sol  =         0.00000000
  ---------------------------------------------------
  free energy    TOTEN  =      -141.86683394 eV

  energy without entropy =     -141.86683394  energy(sigma->0) =     -141.86683394


--------------------------------------------------------------------------------------------------------




----------------------------------------- Iteration    1(   6)  ---------------------------------------


    POTLOK:  cpu time   20.2959: real time   20.2815
    SETDIJ:  cpu time    0.0290: real time    0.0294
     EDDAV:  cpu time  291.0927: real time  290.8808
       DOS:  cpu time    0.0000: real time    0.0005
    CHARGE:  cpu time   16.3375: real time   16.3253
    MIXING:  cpu time    0.6199: real time    0.6198
    --------------------------------------------
      LOOP:  cpu time  328.3791: real time  328.1464

 eigenvalue-minimisations  :   432
 total energy-change (2. order) : 0.1015476E+02  (-0.2384734E+01)
 number of electron      57.9999996 magnetization 
 augmentation part        2.6287413 magnetization 

 Broyden mixing:
  rms(total) = 0.99718E+00    rms(broyden)= 0.99673E+00
  rms(prec ) = 0.10254E+01
  weight for this iteration     100.00

 eigenvalues of (default mixing * dielectric matrix)
  average eigenvalue GAMMA=   1.2754
  1.2754

 Free energy of the ion-electron system (eV)
  ---------------------------------------------------
  alpha Z        PSCENC =         0.51957394
  Ewald energy   TEWEN  =      6109.51178646
  -Hartree energ DENC   =     -7967.72949218
  -exchange      EXHF   =         0.00000000
  -V(xc)+E(xc)   XCENC  =       208.07657484
  PAW double counting   =      2774.27863859    -2785.13706594
  entropy T*S    EENTRO =         0.00000000
  eigenvalues    EBANDS =      -897.21542469
  atomic energy  EATOM  =      2425.98333211
  Solvation  Ediel_sol  =         0.00000000
  ---------------------------------------------------
  free energy    TOTEN  =      -131.71207686 eV

  energy without entropy =     -131.71207686  energy(sigma->0) =     -131.71207686


--------------------------------------------------------------------------------------------------------




----------------------------------------- Iteration    1(   7)  ---------------------------------------


    POTLOK:  cpu time   18.2032: real time   18.1896
    SETDIJ:  cpu time    0.0290: real time    0.0285
     EDDAV:  cpu time  277.1749: real time  276.9695
       DOS:  cpu time    0.0000: real time    0.0005
    CHARGE:  cpu time   18.8261: real time   18.8129
    MIXING:  cpu time    0.7389: real time    0.7384
    --------------------------------------------
      LOOP:  cpu time  314.9741: real time  314.7428

 eigenvalue-minimisations  :   424
 total energy-change (2. order) : 0.1745425E+01  (-0.4592174E+00)
 number of electron      57.9999998 magnetization 
 augmentation part        2.6177232 magnetization 

 Broyden mixing:
  rms(total) = 0.51618E+00    rms(broyden)= 0.51607E+00
  rms(prec ) = 0.52885E+00
  weight for this iteration     100.00

 eigenvalues of (default mixing * dielectric matrix)
  average eigenvalue GAMMA=   1.5631
  1.1004  2.0258

 Free energy of the ion-electron system (eV)
  ---------------------------------------------------
  alpha Z        PSCENC =         0.51957394
  Ewald energy   TEWEN  =      6109.51178646
  -Hartree energ DENC   =     -8029.56014245
  -exchange      EXHF   =         0.00000000
  -V(xc)+E(xc)   XCENC  =       211.09847645
  PAW double counting   =      3738.75715773    -3749.88401286
  entropy T*S    EENTRO =         0.00000000
  eigenvalues    EBANDS =      -836.39282280
  atomic energy  EATOM  =      2425.98333211
  Solvation  Ediel_sol  =         0.00000000
  ---------------------------------------------------
  free energy    TOTEN  =      -129.96665143 eV

  energy without entropy =     -129.96665143  energy(sigma->0) =     -129.96665143


--------------------------------------------------------------------------------------------------------




----------------------------------------- Iteration    1(   8)  ---------------------------------------


    POTLOK:  cpu time   20.9068: real time   20.8926
    SETDIJ:  cpu time    0.0300: real time    0.0297
     EDDAV:  cpu time  300.2284: real time  300.0117
       DOS:  cpu time    0.0000: real time    0.0005
    CHARGE:  cpu time   18.2042: real time   18.1912
    MIXING:  cpu time    0.7799: real time    0.7791
    --------------------------------------------
      LOOP:  cpu time  340.1513: real time  339.9083

 eigenvalue-minimisations  :   432
 total energy-change (2. order) : 0.4898735E+00  (-0.8441130E-01)
 number of electron      57.9999998 magnetization 
 augmentation part        2.5892761 magnetization 

 Broyden mixing:
  rms(total) = 0.15457E+00    rms(broyden)= 0.15450E+00
  rms(prec ) = 0.16226E+00
  weight for this iteration     100.00

 eigenvalues of (default mixing * dielectric matrix)
  average eigenvalue GAMMA=   1.5414
  2.3884  0.9432  1.2927

 Free energy of the ion-electron system (eV)
  ---------------------------------------------------
  alpha Z        PSCENC =         0.51957394
  Ewald energy   TEWEN  =      6109.51178646
  -Hartree energ DENC   =     -8069.84141638
  -exchange      EXHF   =         0.00000000
  -V(xc)+E(xc)   XCENC  =       213.21629725
  PAW double counting   =      4555.48715081    -4566.79684428
  entropy T*S    EENTRO =         0.00000000
  eigenvalues    EBANDS =      -797.55665780
  atomic energy  EATOM  =      2425.98333211
  Solvation  Ediel_sol  =         0.00000000
  ---------------------------------------------------
  free energy    TOTEN  =      -129.47677790 eV

  energy without entropy =     -129.47677790  energy(sigma->0) =     -129.47677790


--------------------------------------------------------------------------------------------------------




----------------------------------------- Iteration    1(   9)  ---------------------------------------


    POTLOK:  cpu time   21.2058: real time   21.1898
    SETDIJ:  cpu time    0.0300: real time    0.0305
     EDDAV:  cpu time  307.3323: real time  307.1073
       DOS:  cpu time    0.0000: real time    0.0005
    CHARGE:  cpu time   18.0673: real time   18.0553
    MIXING:  cpu time    0.7529: real time    0.7524
    --------------------------------------------
      LOOP:  cpu time  347.3902: real time  347.1397

 eigenvalue-minimisations  :   464
 total energy-change (2. order) : 0.6865420E-01  (-0.1040459E-01)
 number of electron      57.9999998 magnetization 
 augmentation part        2.5813081 magnetization 

 Broyden mixing:
  rms(total) = 0.56978E-01    rms(broyden)= 0.56949E-01
  rms(prec ) = 0.65601E-01
  weight for this iteration     100.00

 eigenvalues of (default mixing * dielectric matrix)
  average eigenvalue GAMMA=   1.5150
  2.1943  1.0458  1.0458  1.7742

 Free energy of the ion-electron system (eV)
  ---------------------------------------------------
  alpha Z        PSCENC =         0.51957394
  Ewald energy   TEWEN  =      6109.51178646
  -Hartree energ DENC   =     -8083.65431279
  -exchange      EXHF   =         0.00000000
  -V(xc)+E(xc)   XCENC  =       213.78135626
  PAW double counting   =      4793.46835777    -4804.74983337
  entropy T*S    EENTRO =         0.00000000
  eigenvalues    EBANDS =      -784.26838408
  atomic energy  EATOM  =      2425.98333211
  Solvation  Ediel_sol  =         0.00000000
  ---------------------------------------------------
  free energy    TOTEN  =      -129.40812370 eV

  energy without entropy =     -129.40812370  energy(sigma->0) =     -129.40812370


--------------------------------------------------------------------------------------------------------




----------------------------------------- Iteration    1(  10)  ---------------------------------------


    POTLOK:  cpu time   20.0630: real time   20.0481
    SETDIJ:  cpu time    0.0290: real time    0.0291
     EDDAV:  cpu time  297.9807: real time  297.7653
       DOS:  cpu time    0.0010: real time    0.0005
    CHARGE:  cpu time   18.3002: real time   18.2877
    MIXING:  cpu time    0.8899: real time    0.8887
    --------------------------------------------
      LOOP:  cpu time  337.2647: real time  337.0228

 eigenvalue-minimisations  :   416
 total energy-change (2. order) : 0.1096307E-01  (-0.2506392E-02)
 number of electron      57.9999998 magnetization 
 augmentation part        2.5877648 magnetization 

 Broyden mixing:
  rms(total) = 0.25818E-01    rms(broyden)= 0.25796E-01
  rms(prec ) = 0.35935E-01
  weight for this iteration     100.00

 eigenvalues of (default mixing * dielectric matrix)
  average eigenvalue GAMMA=   1.4870
  2.1697  2.1697  0.9642  0.9642  1.1673

 Free energy of the ion-electron system (eV)
  ---------------------------------------------------
  alpha Z        PSCENC =         0.51957394
  Ewald energy   TEWEN  =      6109.51178646
  -Hartree energ DENC   =     -8088.58354812
  -exchange      EXHF   =         0.00000000
  -V(xc)+E(xc)   XCENC  =       213.78832257
  PAW double counting   =      4784.87847518    -4796.11121471
  entropy T*S    EENTRO =         0.00000000
  eigenvalues    EBANDS =      -779.38388805
  atomic energy  EATOM  =      2425.98333211
  Solvation  Ediel_sol  =         0.00000000
  ---------------------------------------------------
  free energy    TOTEN  =      -129.39716062 eV

  energy without entropy =     -129.39716062  energy(sigma->0) =     -129.39716062


--------------------------------------------------------------------------------------------------------




----------------------------------------- Iteration    1(  11)  ---------------------------------------


    POTLOK:  cpu time   20.6779: real time   20.6642
    SETDIJ:  cpu time    0.0290: real time    0.0292
     EDDAV:  cpu time  302.4690: real time  302.2528
       DOS:  cpu time    0.0000: real time    0.0005
    CHARGE:  cpu time   16.3625: real time   16.3506
    MIXING:  cpu time    0.7849: real time    0.7846
    --------------------------------------------
      LOOP:  cpu time  340.3253: real time  340.0853

 eigenvalue-minimisations  :   440
 total energy-change (2. order) : 0.5280342E-02  (-0.8119220E-03)
 number of electron      57.9999998 magnetization 
 augmentation part        2.5835136 magnetization 

 Broyden mixing:
  rms(total) = 0.16263E-01    rms(broyden)= 0.16257E-01
  rms(prec ) = 0.25079E-01
  weight for this iteration     100.00

 eigenvalues of (default mixing * dielectric matrix)
  average eigenvalue GAMMA=   1.5493
  2.4781  2.4781  0.9480  0.9480  1.2217  1.2217

 Free energy of the ion-electron system (eV)
  ---------------------------------------------------
  alpha Z        PSCENC =         0.51957394
  Ewald energy   TEWEN  =      6109.51178646
  -Hartree energ DENC   =     -8094.46967557
  -exchange      EXHF   =         0.00000000
  -V(xc)+E(xc)   XCENC  =       213.89520055
  PAW double counting   =      4788.73812225    -4799.97035649
  entropy T*S    EENTRO =         0.00000000
  eigenvalues    EBANDS =      -773.59986353
  atomic energy  EATOM  =      2425.98333211
  Solvation  Ediel_sol  =         0.00000000
  ---------------------------------------------------
  free energy    TOTEN  =      -129.39188028 eV

  energy without entropy =     -129.39188028  energy(sigma->0) =     -129.39188028


--------------------------------------------------------------------------------------------------------




----------------------------------------- Iteration    1(  12)  ---------------------------------------


    POTLOK:  cpu time   18.1172: real time   18.1049
    SETDIJ:  cpu time    0.0290: real time    0.0284
     EDDAV:  cpu time  283.9868: real time  283.7834
       DOS:  cpu time    0.0000: real time    0.0005
    CHARGE:  cpu time   18.4652: real time   18.4521
    MIXING:  cpu time    0.9309: real time    0.9296
    --------------------------------------------
      LOOP:  cpu time  321.5311: real time  321.3034

 eigenvalue-minimisations  :   384
 total energy-change (2. order) :-0.9673189E-03  (-0.5803645E-03)
 number of electron      57.9999998 magnetization 
 augmentation part        2.5830643 magnetization 

 Broyden mixing:
  rms(total) = 0.98358E-02    rms(broyden)= 0.98313E-02
  rms(prec ) = 0.15989E-01
  weight for this iteration     100.00

 eigenvalues of (default mixing * dielectric matrix)
  average eigenvalue GAMMA=   1.5985
  2.7087  2.7087  1.4082  1.2134  1.2134  0.9684  0.9684

 Free energy of the ion-electron system (eV)
  ---------------------------------------------------
  alpha Z        PSCENC =         0.51957394
  Ewald energy   TEWEN  =      6109.51178646
  -Hartree energ DENC   =     -8101.21731102
  -exchange      EXHF   =         0.00000000
  -V(xc)+E(xc)   XCENC  =       213.97981313
  PAW double counting   =      4783.71577336    -4794.93770742
  entropy T*S    EENTRO =         0.00000000
  eigenvalues    EBANDS =      -766.94810816
  atomic energy  EATOM  =      2425.98333211
  Solvation  Ediel_sol  =         0.00000000
  ---------------------------------------------------
  free energy    TOTEN  =      -129.39284760 eV

  energy without entropy =     -129.39284760  energy(sigma->0) =     -129.39284760


--------------------------------------------------------------------------------------------------------




----------------------------------------- Iteration    1(  13)  ---------------------------------------


    POTLOK:  cpu time   20.2479: real time   20.2344
    SETDIJ:  cpu time    0.0290: real time    0.0292
     EDDAV:  cpu time  286.0955: real time  285.8886
       DOS:  cpu time    0.0000: real time    0.0005
    CHARGE:  cpu time   17.3964: real time   17.3837
    MIXING:  cpu time    0.9709: real time    0.9708
    --------------------------------------------
      LOOP:  cpu time  324.7426: real time  324.5117

 eigenvalue-minimisations  :   400
 total energy-change (2. order) :-0.6379294E-02  (-0.4523107E-03)
 number of electron      57.9999998 magnetization 
 augmentation part        2.5816080 magnetization 

 Broyden mixing:
  rms(total) = 0.59394E-02    rms(broyden)= 0.59343E-02
  rms(prec ) = 0.96700E-02
  weight for this iteration     100.00

 eigenvalues of (default mixing * dielectric matrix)
  average eigenvalue GAMMA=   1.6976
  4.0537  2.4953  1.6618  1.3474  0.9987  0.9987  0.9110  1.1139

 Free energy of the ion-electron system (eV)
  ---------------------------------------------------
  alpha Z        PSCENC =         0.51957394
  Ewald energy   TEWEN  =      6109.51178646
  -Hartree energ DENC   =     -8106.78211419
  -exchange      EXHF   =         0.00000000
  -V(xc)+E(xc)   XCENC  =       214.04680751
  PAW double counting   =      4778.78041709    -4790.00274595
  entropy T*S    EENTRO =         0.00000000
  eigenvalues    EBANDS =      -761.45628386
  atomic energy  EATOM  =      2425.98333211
  Solvation  Ediel_sol  =         0.00000000
  ---------------------------------------------------
  free energy    TOTEN  =      -129.39922689 eV

  energy without entropy =     -129.39922689  energy(sigma->0) =     -129.39922689


--------------------------------------------------------------------------------------------------------




----------------------------------------- Iteration    1(  14)  ---------------------------------------


    POTLOK:  cpu time   19.1341: real time   19.1192
    SETDIJ:  cpu time    0.0290: real time    0.0295
     EDDAV:  cpu time  277.0479: real time  276.8482
       DOS:  cpu time    0.0000: real time    0.0005
    CHARGE:  cpu time   19.4540: real time   19.4401
    MIXING:  cpu time    1.1598: real time    1.1586
    --------------------------------------------
      LOOP:  cpu time  316.8258: real time  316.6006

 eigenvalue-minimisations  :   392
 total energy-change (2. order) :-0.6508891E-02  (-0.1834199E-03)
 number of electron      57.9999998 magnetization 
 augmentation part        2.5810163 magnetization 

 Broyden mixing:
  rms(total) = 0.39266E-02    rms(broyden)= 0.39229E-02
  rms(prec ) = 0.60004E-02
  weight for this iteration     100.00

 eigenvalues of (default mixing * dielectric matrix)
  average eigenvalue GAMMA=   1.8039
  4.9859  2.4167  2.1356  1.2741  1.2138  1.2138  1.0665  0.9645  0.9645

 Free energy of the ion-electron system (eV)
  ---------------------------------------------------
  alpha Z        PSCENC =         0.51957394
  Ewald energy   TEWEN  =      6109.51178646
  -Hartree energ DENC   =     -8110.28028526
  -exchange      EXHF   =         0.00000000
  -V(xc)+E(xc)   XCENC  =       214.07024325
  PAW double counting   =      4772.83392496    -4784.05340842
  entropy T*S    EENTRO =         0.00000000
  eigenvalues    EBANDS =      -757.99090282
  atomic energy  EATOM  =      2425.98333211
  Solvation  Ediel_sol  =         0.00000000
  ---------------------------------------------------
  free energy    TOTEN  =      -129.40573579 eV

  energy without entropy =     -129.40573579  energy(sigma->0) =     -129.40573579


--------------------------------------------------------------------------------------------------------




----------------------------------------- Iteration    1(  15)  ---------------------------------------


    POTLOK:  cpu time   21.8647: real time   21.8485
    SETDIJ:  cpu time    0.0290: real time    0.0290
     EDDAV:  cpu time  307.1703: real time  306.9500
       DOS:  cpu time    0.0000: real time    0.0005
    CHARGE:  cpu time   17.8263: real time   17.8132
    MIXING:  cpu time    1.0988: real time    1.0985
    --------------------------------------------
      LOOP:  cpu time  347.9901: real time  347.7433

 eigenvalue-minimisations  :   430
 total energy-change (2. order) :-0.7606233E-02  (-0.8096983E-04)
 number of electron      57.9999998 magnetization 
 augmentation part        2.5807159 magnetization 

 Broyden mixing:
  rms(total) = 0.24850E-02    rms(broyden)= 0.24837E-02
  rms(prec ) = 0.36901E-02
  weight for this iteration     100.00

 eigenvalues of (default mixing * dielectric matrix)
  average eigenvalue GAMMA=   1.8911
  5.6154  2.7468  2.3786  1.6519  1.4399  1.0366  1.0366  1.0228  1.0228  0.9598

 Free energy of the ion-electron system (eV)
  ---------------------------------------------------
  alpha Z        PSCENC =         0.51957394
  Ewald energy   TEWEN  =      6109.51178646
  -Hartree energ DENC   =     -8111.99042339
  -exchange      EXHF   =         0.00000000
  -V(xc)+E(xc)   XCENC  =       214.07062504
  PAW double counting   =      4772.04373105    -4783.26164967
  entropy T*S    EENTRO =         0.00000000
  eigenvalues    EBANDS =      -756.29031756
  atomic energy  EATOM  =      2425.98333211
  Solvation  Ediel_sol  =         0.00000000
  ---------------------------------------------------
  free energy    TOTEN  =      -129.41334202 eV

  energy without entropy =     -129.41334202  energy(sigma->0) =     -129.41334202


--------------------------------------------------------------------------------------------------------




----------------------------------------- Iteration    1(  16)  ---------------------------------------


    POTLOK:  cpu time   20.1609: real time   20.1460
    SETDIJ:  cpu time    0.0290: real time    0.0288
     EDDAV:  cpu time  236.8240: real time  236.6525
       DOS:  cpu time    0.0000: real time    0.0005
    CHARGE:  cpu time   20.6679: real time   20.6525
    MIXING:  cpu time    1.4278: real time    1.4265
    --------------------------------------------
      LOOP:  cpu time  279.1116: real time  278.9108

 eigenvalue-minimisations  :   334
 total energy-change (2. order) :-0.6187962E-02  (-0.4879067E-04)
 number of electron      57.9999998 magnetization 
 augmentation part        2.5808777 magnetization 

 Broyden mixing:
  rms(total) = 0.14027E-02    rms(broyden)= 0.14021E-02
  rms(prec ) = 0.20957E-02
  weight for this iteration     100.00

 eigenvalues of (default mixing * dielectric matrix)
  average eigenvalue GAMMA=   1.9344
  6.2570  3.1488  2.3322  1.8963  1.2875  1.2875  1.0184  1.0184  1.0105  1.0110
  1.0110

 Free energy of the ion-electron system (eV)
  ---------------------------------------------------
  alpha Z        PSCENC =         0.51957394
  Ewald energy   TEWEN  =      6109.51178646
  -Hartree energ DENC   =     -8112.68432958
  -exchange      EXHF   =         0.00000000
  -V(xc)+E(xc)   XCENC  =       214.06022714
  PAW double counting   =      4771.91519226    -4783.13199417
  entropy T*S    EENTRO =         0.00000000
  eigenvalues    EBANDS =      -755.59331814
  atomic energy  EATOM  =      2425.98333211
  Solvation  Ediel_sol  =         0.00000000
  ---------------------------------------------------
  free energy    TOTEN  =      -129.41952998 eV

  energy without entropy =     -129.41952998  energy(sigma->0) =     -129.41952998


--------------------------------------------------------------------------------------------------------




----------------------------------------- Iteration    1(  17)  ---------------------------------------


    POTLOK:  cpu time   22.9775: real time   22.9630
    SETDIJ:  cpu time    0.0300: real time    0.0292
     EDDAV:  cpu time  254.9242: real time  254.7437
       DOS:  cpu time    0.0000: real time    0.0006
    CHARGE:  cpu time   19.7680: real time   19.7537
    MIXING:  cpu time    1.3858: real time    1.3845
    --------------------------------------------
      LOOP:  cpu time  299.0885: real time  298.8784

 eigenvalue-minimisations  :   336
 total energy-change (2. order) :-0.2765282E-02  (-0.1355270E-04)
 number of electron      57.9999998 magnetization 
 augmentation part        2.5807869 magnetization 

 Broyden mixing:
  rms(total) = 0.93875E-03    rms(broyden)= 0.93841E-03
  rms(prec ) = 0.13750E-02
  weight for this iteration     100.00

 eigenvalues of (default mixing * dielectric matrix)
  average eigenvalue GAMMA=   2.0277
  7.0935  3.6048  2.2913  2.2913  1.5185  1.5185  1.0543  1.0543  1.0257  1.0257
  0.9274  0.9274

 Free energy of the ion-electron system (eV)
  ---------------------------------------------------
  alpha Z        PSCENC =         0.51957394
  Ewald energy   TEWEN  =      6109.51178646
  -Hartree energ DENC   =     -8113.00019565
  -exchange      EXHF   =         0.00000000
  -V(xc)+E(xc)   XCENC  =       214.05622219
  PAW double counting   =      4771.98037811    -4783.19715415
  entropy T*S    EENTRO =         0.00000000
  eigenvalues    EBANDS =      -755.27623826
  atomic energy  EATOM  =      2425.98333211
  Solvation  Ediel_sol  =         0.00000000
  ---------------------------------------------------
  free energy    TOTEN  =      -129.42229526 eV

  energy without entropy =     -129.42229526  energy(sigma->0) =     -129.42229526


--------------------------------------------------------------------------------------------------------




----------------------------------------- Iteration    1(  18)  ---------------------------------------


    POTLOK:  cpu time   21.9687: real time   21.9529
    SETDIJ:  cpu time    0.0290: real time    0.0294
     EDDAV:  cpu time  212.0778: real time  211.9250
       DOS:  cpu time    0.0000: real time    0.0005
    CHARGE:  cpu time   17.7733: real time   17.7594
    MIXING:  cpu time    1.3018: real time    1.3013
    --------------------------------------------
      LOOP:  cpu time  253.1515: real time  252.9722

 eigenvalue-minimisations  :   268
 total energy-change (2. order) :-0.1999356E-02  (-0.1393100E-04)
 number of electron      57.9999998 magnetization 
 augmentation part        2.5807346 magnetization 

 Broyden mixing:
  rms(total) = 0.55479E-03    rms(broyden)= 0.55457E-03
  rms(prec ) = 0.79341E-03
  weight for this iteration     100.00

 eigenvalues of (default mixing * dielectric matrix)
  average eigenvalue GAMMA=   2.0688
  7.4976  4.1523  2.5070  2.2263  1.7497  1.3721  1.3721  1.0606  1.0606  0.9560
  0.9560  0.9922  0.9922

 Free energy of the ion-electron system (eV)
  ---------------------------------------------------
  alpha Z        PSCENC =         0.51957394
  Ewald energy   TEWEN  =      6109.51178646
  -Hartree energ DENC   =     -8113.20201202
  -exchange      EXHF   =         0.00000000
  -V(xc)+E(xc)   XCENC  =       214.05305215
  PAW double counting   =      4772.23960668    -4783.45627338
  entropy T*S    EENTRO =         0.00000000
  eigenvalues    EBANDS =      -755.07336056
  atomic energy  EATOM  =      2425.98333211
  Solvation  Ediel_sol  =         0.00000000
  ---------------------------------------------------
  free energy    TOTEN  =      -129.42429462 eV

  energy without entropy =     -129.42429462  energy(sigma->0) =     -129.42429462


--------------------------------------------------------------------------------------------------------




----------------------------------------- Iteration    1(  19)  ---------------------------------------


    POTLOK:  cpu time   19.4340: real time   19.4190
    SETDIJ:  cpu time    0.0280: real time    0.0287
     EDDAV:  cpu time  241.7303: real time  241.5568
       DOS:  cpu time    0.0000: real time    0.0005
    CHARGE:  cpu time   19.9070: real time   19.8931
    MIXING:  cpu time    1.6817: real time    1.6796
    --------------------------------------------
      LOOP:  cpu time  282.7830: real time  282.5810

 eigenvalue-minimisations  :   328
 total energy-change (2. order) :-0.9385467E-03  (-0.5826362E-05)
 number of electron      57.9999998 magnetization 
 augmentation part        2.5806865 magnetization 

 Broyden mixing:
  rms(total) = 0.34666E-03    rms(broyden)= 0.34648E-03
  rms(prec ) = 0.48541E-03
  weight for this iteration     100.00

 eigenvalues of (default mixing * dielectric matrix)
  average eigenvalue GAMMA=   2.1330
  8.1118  4.7039  2.5976  2.5976  1.6021  1.6021  1.5631  1.0701  1.0701  0.9169
  1.0233  1.0233  0.9902  0.9902

 Free energy of the ion-electron system (eV)
  ---------------------------------------------------
  alpha Z        PSCENC =         0.51957394
  Ewald energy   TEWEN  =      6109.51178646
  -Hartree energ DENC   =     -8113.28630752
  -exchange      EXHF   =         0.00000000
  -V(xc)+E(xc)   XCENC  =       214.05274346
  PAW double counting   =      4772.62274450    -4783.83955608
  entropy T*S    EENTRO =         0.00000000
  eigenvalues    EBANDS =      -754.98955003
  atomic energy  EATOM  =      2425.98333211
  Solvation  Ediel_sol  =         0.00000000
  ---------------------------------------------------
  free energy    TOTEN  =      -129.42523316 eV

  energy without entropy =     -129.42523316  energy(sigma->0) =     -129.42523316


--------------------------------------------------------------------------------------------------------




----------------------------------------- Iteration    1(  20)  ---------------------------------------


    POTLOK:  cpu time   22.3476: real time   22.3331
    SETDIJ:  cpu time    0.0300: real time    0.0294
     EDDAV:  cpu time  226.8025: real time  226.6403
       DOS:  cpu time    0.0000: real time    0.0005
    CHARGE:  cpu time   18.4632: real time   18.4503
    MIXING:  cpu time    1.6697: real time    1.6674
    --------------------------------------------
      LOOP:  cpu time  269.3141: real time  269.2049

 eigenvalue-minimisations  :   278
 total energy-change (2. order) :-0.4728668E-03  (-0.2025914E-05)
 number of electron      57.9999998 magnetization 
 augmentation part        2.5807026 magnetization 

 Broyden mixing:
  rms(total) = 0.20745E-03    rms(broyden)= 0.20736E-03
  rms(prec ) = 0.28854E-03
  weight for this iteration     100.00

 eigenvalues of (default mixing * dielectric matrix)
  average eigenvalue GAMMA=   2.1338
  8.2698  5.1459  2.8108  2.4855  1.9049  1.6609  1.2648  1.2648  1.0498  1.0498
  1.0883  0.9732  1.0142  1.0121  1.0121

 Free energy of the ion-electron system (eV)
  ---------------------------------------------------
  alpha Z        PSCENC =         0.51957394
  Ewald energy   TEWEN  =      6109.51178646
  -Hartree energ DENC   =     -8113.30104163
  -exchange      EXHF   =         0.00000000
  -V(xc)+E(xc)   XCENC  =       214.05104401
  PAW double counting   =      4772.22525343    -4783.44198942
  entropy T*S    EENTRO =         0.00000000
  eigenvalues    EBANDS =      -754.97366493
  atomic energy  EATOM  =      2425.98333211
  Solvation  Ediel_sol  =         0.00000000
  ---------------------------------------------------
  free energy    TOTEN  =      -129.42570603 eV

  energy without entropy =     -129.42570603  energy(sigma->0) =     -129.42570603


--------------------------------------------------------------------------------------------------------




----------------------------------------- Iteration    1(  21)  ---------------------------------------


    POTLOK:  cpu time   21.5037: real time   21.4893
    SETDIJ:  cpu time    0.0300: real time    0.0299
     EDDAV:  cpu time  253.8894: real time  253.7029
       DOS:  cpu time    0.0000: real time    0.0005
    CHARGE:  cpu time   17.4823: real time   17.4707
    MIXING:  cpu time    1.5628: real time    1.5625
    --------------------------------------------
      LOOP:  cpu time  294.4702: real time  294.2596

 eigenvalue-minimisations  :   360
 total energy-change (2. order) :-0.2102035E-03  (-0.8657947E-06)
 number of electron      57.9999998 magnetization 
 augmentation part        2.5806823 magnetization 

 Broyden mixing:
  rms(total) = 0.13010E-03    rms(broyden)= 0.13003E-03
  rms(prec ) = 0.18243E-03
  weight for this iteration     100.00

 eigenvalues of (default mixing * dielectric matrix)
  average eigenvalue GAMMA=   2.2143
  8.4809  5.8102  3.3353  2.5645  2.4228  1.6315  1.6315  1.4168  1.1076  1.1076
  1.0465  1.0465  0.9693  0.9693  1.0077  0.8803

 Free energy of the ion-electron system (eV)
  ---------------------------------------------------
  alpha Z        PSCENC =         0.51957394
  Ewald energy   TEWEN  =      6109.51178646
  -Hartree energ DENC   =     -8113.31346224
  -exchange      EXHF   =         0.00000000
  -V(xc)+E(xc)   XCENC  =       214.05099917
  PAW double counting   =      4772.32807691    -4783.54487302
  entropy T*S    EENTRO =         0.00000000
  eigenvalues    EBANDS =      -754.96134956
  atomic energy  EATOM  =      2425.98333211
  Solvation  Ediel_sol  =         0.00000000
  ---------------------------------------------------
  free energy    TOTEN  =      -129.42591623 eV

  energy without entropy =     -129.42591623  energy(sigma->0) =     -129.42591623


--------------------------------------------------------------------------------------------------------




----------------------------------------- Iteration    1(  22)  ---------------------------------------


    POTLOK:  cpu time   20.5579: real time   20.5452
    SETDIJ:  cpu time    0.0300: real time    0.0295
     EDDAV:  cpu time  209.1612: real time  209.0118
       DOS:  cpu time    0.0000: real time    0.0005
    CHARGE:  cpu time   19.3081: real time   19.2937
    MIXING:  cpu time    2.0857: real time    2.0846
    --------------------------------------------
      LOOP:  cpu time  251.1458: real time  250.9688

 eigenvalue-minimisations  :   244
 total energy-change (2. order) :-0.1578552E-03  (-0.4530482E-06)
 number of electron      57.9999998 magnetization 
 augmentation part        2.5806838 magnetization 

 Broyden mixing:
  rms(total) = 0.10111E-03    rms(broyden)= 0.10107E-03
  rms(prec ) = 0.12137E-03
  weight for this iteration     100.00

 eigenvalues of (default mixing * dielectric matrix)
  average eigenvalue GAMMA=   2.2080
  8.5927  6.0971  3.6253  2.4624  2.4624  1.8256  1.6641  1.3460  1.3460  1.0513
  1.0513  1.0911  1.0911  0.9774  0.9774  0.9578  0.9170

 Free energy of the ion-electron system (eV)
  ---------------------------------------------------
  alpha Z        PSCENC =         0.51957394
  Ewald energy   TEWEN  =      6109.51178646
  -Hartree energ DENC   =     -8113.32339991
  -exchange      EXHF   =         0.00000000
  -V(xc)+E(xc)   XCENC  =       214.05061364
  PAW double counting   =      4772.23858883    -4783.45540206
  entropy T*S    EENTRO =         0.00000000
  eigenvalues    EBANDS =      -754.95116710
  atomic energy  EATOM  =      2425.98333211
  Solvation  Ediel_sol  =         0.00000000
  ---------------------------------------------------
  free energy    TOTEN  =      -129.42607409 eV

  energy without entropy =     -129.42607409  energy(sigma->0) =     -129.42607409


--------------------------------------------------------------------------------------------------------




----------------------------------------- Iteration    1(  23)  ---------------------------------------


    POTLOK:  cpu time   23.1805: real time   23.1642
    SETDIJ:  cpu time    0.0310: real time    0.0309
     EDDAV:  cpu time  277.8258: real time  277.6271
       DOS:  cpu time    0.0010: real time    0.0005
    --------------------------------------------
      LOOP:  cpu time  301.0392: real time  300.8265

 eigenvalue-minimisations  :   368
 total energy-change (2. order) :-0.4498468E-04  (-0.1182968E-06)
 number of electron      57.9999998 magnetization 
 augmentation part        2.5806838 magnetization 

 Free energy of the ion-electron system (eV)
  ---------------------------------------------------
  alpha Z        PSCENC =         0.51957394
  Ewald energy   TEWEN  =      6109.51178646
  -Hartree energ DENC   =     -8113.33109864
  -exchange      EXHF   =         0.00000000
  -V(xc)+E(xc)   XCENC  =       214.05051242
  PAW double counting   =      4772.24099819    -4783.45776831
  entropy T*S    EENTRO =         0.00000000
  eigenvalues    EBANDS =      -754.94345525
  atomic energy  EATOM  =      2425.98333211
  Solvation  Ediel_sol  =         0.00000000
  ---------------------------------------------------
  free energy    TOTEN  =      -129.42611907 eV

  energy without entropy =     -129.42611907  energy(sigma->0) =     -129.42611907


--------------------------------------------------------------------------------------------------------




 average (electrostatic) potential at core
  the test charge radii are     0.5201  0.6991  0.7089  0.7215
  (the norm of the test charge is              1.0000)
       1 -42.3144       2 -42.5613       3 -42.5769       4 -44.7846       5 -42.3727
       6 -41.9178       7 -41.8008       8 -41.9424       9 -43.3841      10 -41.7332
      11 -41.7277      12 -42.0388      13 -59.0928      14 -61.4980      15 -59.9949
      16 -58.6196      17 -60.7538      18 -59.1340      19 -74.7653      20 -73.9245
      21 -79.9930      22 -79.2529
 
 
 
 E-fermi :  -4.4058     XC(G=0):  -0.1529     alpha+bet : -0.0465


 k-point     1 :       0.2500    0.2500    0.2500
  band No.  band energies     occupation 
      1     -26.2097      2.00000
      2     -25.5016      2.00000
      3     -23.4364      2.00000
      4     -22.6409      2.00000
      5     -19.5816      2.00000
      6     -18.2604      2.00000
      7     -17.3546      2.00000
      8     -16.1561      2.00000
      9     -14.7360      2.00000
     10     -13.9377      2.00000
     11     -13.2481      2.00000
     12     -12.5297      2.00000
     13     -11.5605      2.00000
     14     -11.3486      2.00000
     15     -10.8718      2.00000
     16     -10.7863      2.00000
     17     -10.3417      2.00000
     18     -10.1167      2.00000
     19      -9.9772      2.00000
     20      -9.9159      2.00000
     21      -9.3818      2.00000
     22      -9.1418      2.00000
     23      -8.9994      2.00000
     24      -8.7025      2.00000
     25      -8.4818      2.00000
     26      -6.7843      2.00000
     27      -6.2320      2.00000
     28      -5.8231      2.00000
     29      -5.4131      2.00000
     30      -1.1613      0.00000
     31      -0.9915      0.00000
     32      -0.4518      0.00000
     33      -0.2949      0.00000
     34      -0.2149      0.00000
     35      -0.0539      0.00000
     36       0.0239      0.00000
     37       0.0867      0.00000
     38       0.1050      0.00000
     39       0.1145      0.00000
     40       0.1636      0.00000
     41       0.1746      0.00000

 k-point     2 :      -0.2500    0.2500    0.2500
  band No.  band energies     occupation 
      1     -26.2097      2.00000
      2     -25.5016      2.00000
      3     -23.4364      2.00000
      4     -22.6409      2.00000
      5     -19.5816      2.00000
      6     -18.2604      2.00000
      7     -17.3546      2.00000
      8     -16.1561      2.00000
      9     -14.7360      2.00000
     10     -13.9377      2.00000
     11     -13.2481      2.00000
     12     -12.5297      2.00000
     13     -11.5605      2.00000
     14     -11.3486      2.00000
     15     -10.8718      2.00000
     16     -10.7863      2.00000
     17     -10.3417      2.00000
     18     -10.1167      2.00000
     19      -9.9772      2.00000
     20      -9.9159      2.00000
     21      -9.3818      2.00000
     22      -9.1418      2.00000
     23      -8.9994      2.00000
     24      -8.7026      2.00000
     25      -8.4818      2.00000
     26      -6.7843      2.00000
     27      -6.2320      2.00000
     28      -5.8231      2.00000
     29      -5.4130      2.00000
     30      -1.1613      0.00000
     31      -0.9915      0.00000
     32      -0.4518      0.00000
     33      -0.2949      0.00000
     34      -0.2149      0.00000
     35      -0.0535      0.00000
     36       0.0224      0.00000
     37       0.0830      0.00000
     38       0.1096      0.00000
     39       0.1198      0.00000
     40       0.1591      0.00000
     41       0.1744      0.00000

 k-point     3 :       0.2500   -0.2500    0.2500
  band No.  band energies     occupation 
      1     -26.2097      2.00000
      2     -25.5016      2.00000
      3     -23.4364      2.00000
      4     -22.6409      2.00000
      5     -19.5816      2.00000
      6     -18.2604      2.00000
      7     -17.3546      2.00000
      8     -16.1561      2.00000
      9     -14.7360      2.00000
[...]

 Free energy of the ion-electron system (eV)
  ---------------------------------------------------
  alpha Z        PSCENC =         0.51957394
  Ewald energy   TEWEN  =      6126.19277167
  -Hartree energ DENC   =     -8129.74038858
  -exchange      EXHF   =         0.00000000
  -V(xc)+E(xc)   XCENC  =       214.09650339
  PAW double counting   =      4778.47945161    -4789.69920680
  entropy T*S    EENTRO =         0.00000000
  eigenvalues    EBANDS =      -755.26680139
  atomic energy  EATOM  =      2425.98333211
  Solvation  Ediel_sol  =         0.00000000
  ---------------------------------------------------
  free energy    TOTEN  =      -129.43476406 eV

  energy without entropy =     -129.43476406  energy(sigma->0) =     -129.43476406


--------------------------------------------------------------------------------------------------------




 average (electrostatic) potential at core
  the test charge radii are     0.5201  0.6991  0.7089  0.7215
  (the norm of the test charge is              1.0000)
       1 -42.3237       2 -42.5609       3 -42.5881       4 -44.7947       5 -42.3742
       6 -41.9001       7 -41.7601       8 -41.9197       9 -43.4383      10 -41.7511
      11 -41.7335      12 -42.0541      13 -59.0960      14 -61.4945      15 -59.9877
      16 -58.5869      17 -60.7546      18 -59.1419      19 -74.7714      20 -73.9432
      21 -79.9813      22 -79.2703
 
 
 
 E-fermi :  -4.4905     XC(G=0):  -0.1316     alpha+bet : -0.0465


 k-point     1 :       0.2500    0.2500    0.2500
  band No.  band energies     occupation 
      1     -26.2101      2.00000
      2     -25.5199      2.00000
      3     -23.4438      2.00000
      4     -22.6651      2.00000
      5     -19.5888      2.00000
      6     -18.2661      2.00000
      7     -17.3581      2.00000
      8     -16.1564      2.00000
      9     -14.7113      2.00000
     10     -13.9691      2.00000
     11     -13.2721      2.00000
     12     -12.5509      2.00000
     13     -11.5713      2.00000
     14     -11.3355      2.00000
     15     -10.8835      2.00000
     16     -10.7830      2.00000
     17     -10.3386      2.00000
     18     -10.1251      2.00000
     19      -9.9796      2.00000
     20      -9.8950      2.00000
     21      -9.3829      2.00000
     22      -9.1672      2.00000
     23      -9.0044      2.00000
     24      -8.7052      2.00000
     25      -8.4790      2.00000
     26      -6.8002      2.00000
     27      -6.2125      2.00000
     28      -5.8351      2.00000
     29      -5.4237      2.00000
     30      -1.1785      0.00000
     31      -0.9828      0.00000
     32      -0.4389      0.00000
     33      -0.2987      0.00000
     34      -0.2114      0.00000
     35      -0.0562      0.00000
     36       0.0482      0.00000
     37       0.1114      0.00000
     38       0.1280      0.00000
     39       0.1387      0.00000
     40       0.1860      0.00000
     41       0.1987      0.00000

 k-point     2 :      -0.2500    0.2500    0.2500
  band No.  band energies     occupation 
      1     -26.2101      2.00000
      2     -25.5199      2.00000
      3     -23.4438      2.00000
      4     -22.6651      2.00000
      5     -19.5888      2.00000
      6     -18.2661      2.00000
      7     -17.3581      2.00000
      8     -16.1564      2.00000
      9     -14.7113      2.00000
     10     -13.9691      2.00000
     11     -13.2721      2.00000
     12     -12.5509      2.00000
     13     -11.5713      2.00000
     14     -11.3355      2.00000
     15     -10.8835      2.00000
     16     -10.7830      2.00000
     17     -10.3386      2.00000
     18     -10.1251      2.00000
     19      -9.9796      2.00000
     20      -9.8950      2.00000
     21      -9.3829      2.00000
     22      -9.1672      2.00000
     23      -9.0044      2.00000
     24      -8.7052      2.00000
     25      -8.4790      2.00000
     26      -6.8002      2.00000
     27      -6.2125      2.00000
     28      -5.8351      2.00000
     29      -5.4237      2.00000
     30      -1.1786      0.00000
     31      -0.9828      0.00000
     32      -0.4389      0.00000
     33      -0.2987      0.00000
     34      -0.2114      0.00000
     35      -0.0561      0.00000
     36       0.0472      0.00000
     37       0.1082      0.00000
     38       0.1321      0.00000
     39       0.1437      0.00000
     40       0.1819      0.00000
     41       0.1971      0.00000

 k-point     3 :       0.2500   -0.2500    0.2500
  band No.  band energies     occupation 
      1     -26.2101      2.00000
      2     -25.5199      2.00000
      3     -23.4438      2.00000
      4     -22.6651      2.00000
      5     -19.5888      2.00000
      6     -18.2661      2.00000
      7     -17.3581      2.00000
      8     -16.1564      2.00000
      9     -14.7113      2.00000
     10     -13.9691      2.00000
     11     -13.2721      2.00000
     12     -12.5509      2.00000
     13     -11.5713      2.00000
     14     -11.3355      2.00000
     15     -10.8835      2.00000
     16     -10.7830      2.00000
     17     -10.3387      2.00000
     18     -10.1251      2.00000
     19      -9.9796      2.00000
     20      -9.8950      2.00000
     21      -9.3829      2.00000
     22      -9.1672      2.00000
     23      -9.0044      2.00000
     24      -8.7052      2.00000
     25      -8.4790      2.00000
     26      -6.8002      2.00000
     27      -6.2125      2.00000
     28      -5.8351      2.00000
     29      -5.4237      2.00000
     30      -1.1786      0.00000
     31      -0.9828      0.00000
     32      -0.4389      0.00000
     33      -0.2987      0.00000
     34      -0.2114      0.00000
     35      -0.0560      0.00000
     36       0.0450      0.00000
     37       0.1155      0.00000
     38       0.1248      0.00000
     39       0.1479      0.00000
     40       0.1833      0.00000
     41       0.1973      0.00000

 k-point     4 :      -0.2500   -0.2500    0.2500
  band No.  band energies     occupation 
      1     -26.2101      2.00000
      2     -25.5199      2.00000
      3     -23.4438      2.00000
      4     -22.6651      2.00000
      5     -19.5888      2.00000
      6     -18.2661      2.00000
      7     -17.3581      2.00000
      8     -16.1564      2.00000
      9     -14.7113      2.00000
     10     -13.9691      2.00000
     11     -13.2721      2.00000
     12     -12.5509      2.00000
     13     -11.5713      2.00000
     14     -11.3355      2.00000
     15     -10.8835      2.00000
     16     -10.7830      2.00000
     17     -10.3386      2.00000
     18     -10.1251      2.00000
     19      -9.9796      2.00000
     20      -9.8950      2.00000
     21      -9.3829      2.00000
     22      -9.1672      2.00000
     23      -9.0044      2.00000
     24      -8.7052      2.00000
     25      -8.4790      2.00000
     26      -6.8001      2.00000
     27      -6.2125      2.00000
     28      -5.8351      2.00000
     29      -5.4237      2.00000
     30      -1.1785      0.00000
     31      -0.9828      0.00000
     32      -0.4389      0.00000
     33      -0.2987      0.00000
     34      -0.2114      0.00000
     35      -0.0560      0.00000
     36       0.0449      0.00000
     37       0.1199      0.00000
     38       0.1323      0.00000
     39       0.1350      0.00000
     40       0.1770      0.00000
     41       0.1940      0.00000


--------------------------------------------------------------------------------------------------------


 soft charge-density along one line, spin component           1
         0         1         2         3         4         5         6         7         8         9
 total charge-density along one line
 
 pseudopotential strength for first ion, spin component:           1
 -2.352  -4.055   0.002   0.000  -0.001
 -4.055  -6.906   0.005   0.000  -0.002
  0.002   0.005  -0.332   0.000  -0.002
  0.000   0.000   0.000  -0.336   0.000
 -0.001  -0.002  -0.002   0.000  -0.335
 total augmentation occupancy for first ion, spin component:           1
  3.532  -0.636  -0.407   0.003   0.174
 -0.636   0.129   0.075   0.000  -0.032
 -0.407   0.075   0.049   0.000  -0.018
  0.003   0.000   0.000   0.009   0.000
  0.174  -0.032  -0.018   0.000   0.015


------------------------ aborting loop because EDIFF is reached ----------------------------------------


    CHARGE:  cpu time   16.8904: real time   16.8768
    FORLOC:  cpu time    5.7261: real time    5.7210
    FORNL :  cpu time   61.9696: real time   61.9194
    STRESS:  cpu time  187.5965: real time  187.4408
    FORCOR:  cpu time   22.8995: real time   22.8813
    FORHAR:  cpu time   10.1755: real time   10.1669
    MIXING:  cpu time    0.7669: real time    0.7659
    OFIELD:  cpu time    0.0000: real time    0.0000

  FORCE on cell =-STRESS in cart. coord.  units (eV):
  Direction    XX          YY          ZZ          XY          YZ          ZX
  --------------------------------------------------------------------------------------
  Alpha Z     0.51957     0.51957     0.51957
  Ewald    2973.73674  2050.82178  1101.63290   -91.84705   143.16239   702.32121
  Hartree  3508.43713  2585.92588  2035.37817   -70.01514   199.82018   563.94504
  E(xc)    -229.93492  -229.56309  -231.62886    -0.20918    -0.54595     0.67955
  Local   -7087.91508 -5219.30858 -3772.00372   156.71028  -365.89032 -1253.17742
  n-local  -132.83608  -135.36148  -131.65876     0.71992     1.78376    -1.04691
  augment    14.64932    14.21496    14.56225    -0.05974     0.86971    -0.13863
  Kinetic   949.65533   929.30359   979.35666     4.61811    20.66793   -12.46537
  Fock        0.00000     0.00000     0.00000     0.00000     0.00000     0.00000
  -------------------------------------------------------------------------------------
  Total      -3.68799    -3.44736    -3.84179    -0.08282    -0.13231     0.11748
  in kB      -0.21884    -0.20457    -0.22797    -0.00491    -0.00785     0.00697
  external pressure =       -0.22 kB  Pullay stress =        0.00 kB


 VOLUME and BASIS-vectors are now :
 -----------------------------------------------------------------------------
  energy-cutoff  :      400.00
  volume of cell :    27000.00
      direct lattice vectors                 reciprocal lattice vectors
    30.000000000  0.000000000  0.000000000     0.033333333  0.000000000  0.000000000
     0.000000000 30.000000000  0.000000000     0.000000000  0.033333333  0.000000000
     0.000000000  0.000000000 30.000000000     0.000000000  0.000000000  0.033333333

  length of vectors
    30.000000000 30.000000000 30.000000000     0.033333333  0.033333333  0.033333333


 FORCES acting on ions
    electron-ion (+dipol)            ewald-force                    non-local-force                 convergence-correction
 -----------------------------------------------------------------------------------------------
   0.629E+02 -.597E+02 -.321E+01   -.651E+02 0.649E+02 0.318E+01   0.223E+01 -.521E+01 0.399E-01   -.170E-04 -.170E-04 -.197E-05
   0.633E+02 0.342E+02 0.476E+02   -.656E+02 -.371E+02 -.517E+02   0.235E+01 0.286E+01 0.404E+01   -.268E-05 -.163E-04 0.917E-05
   0.525E+02 0.276E+02 -.606E+02   -.538E+02 -.300E+02 0.654E+02   0.128E+01 0.241E+01 -.475E+01   -.514E-06 -.225E-04 0.175E-04
   0.579E+02 0.931E+02 -.409E+02   -.617E+02 -.989E+02 0.438E+02   0.374E+01 0.574E+01 -.290E+01   0.150E-04 -.253E-04 0.276E-04
   -.132E+02 0.102E+03 -.124E+02   0.143E+02 -.107E+03 0.139E+02   -.111E+01 0.546E+01 -.150E+01   0.398E-04 -.300E-04 0.534E-04
   -.750E+02 0.260E+02 0.446E+02   0.804E+02 -.272E+02 -.452E+02   -.538E+01 0.115E+01 0.643E+00   0.338E-04 -.199E-04 0.339E-04
   -.102E+02 -.492E+02 0.688E+02   0.933E+01 0.545E+02 -.706E+02   0.919E+00 -.529E+01 0.175E+01   0.192E-04 -.315E-04 0.245E-04
   0.201E+02 0.535E+02 0.719E+02   -.229E+02 -.569E+02 -.752E+02   0.284E+01 0.337E+01 0.326E+01   0.804E-05 -.233E-04 0.871E-05
   0.300E+02 -.712E+02 0.279E+02   -.354E+02 0.740E+02 -.318E+02   0.537E+01 -.278E+01 0.394E+01   0.391E-04 -.496E-04 0.445E-04
   -.525E+01 -.187E+02 -.853E+02   0.428E+01 0.179E+02 0.908E+02   0.975E+00 0.788E+00 -.541E+01   0.170E-04 -.629E-04 -.170E-04
   -.861E+02 -.175E+02 -.669E+01   0.916E+02 0.163E+02 0.587E+01   -.544E+01 0.124E+01 0.818E+00   0.767E-05 -.636E-04 0.199E-04
   -.836E+01 -.872E+02 -.189E+01   0.746E+01 0.926E+02 0.638E+00   0.898E+00 -.543E+01 0.125E+01   0.805E-05 -.535E-04 0.152E-04
   0.228E+03 0.133E+01 -.195E+02   -.229E+03 -.333E+00 0.196E+02   0.813E+00 -.100E+01 -.911E-01   -.332E-05 -.917E-04 -.228E-04
   0.188E+03 0.116E+02 -.492E+01   -.193E+03 -.114E+02 0.560E+01   0.497E+01 -.210E+00 -.680E+00   0.503E-04 -.138E-03 0.344E-04
   -.409E+02 0.166E+03 0.353E+02   0.465E+02 -.167E+03 -.360E+02   -.559E+01 0.113E+01 0.686E+00   0.144E-03 -.305E-04 0.165E-03
   -.794E+02 0.652E+02 0.218E+03   0.796E+02 -.647E+02 -.219E+03   -.145E+00 -.567E+00 0.111E+01   0.893E-04 -.167E-04 0.113E-03
   -.302E+02 0.430E+02 -.140E+02   0.276E+02 -.453E+02 0.117E+02   0.266E+01 0.223E+01 0.230E+01   0.871E-04 -.915E-04 0.136E-03
   -.124E+03 -.175E+03 -.121E+03   0.127E+03 0.177E+03 0.124E+03   -.344E+01 -.257E+01 -.317E+01   -.285E-04 -.283E-03 0.912E-04
   0.127E+03 0.205E+03 -.569E+02   -.124E+03 -.205E+03 0.567E+02   -.281E+01 0.188E-01 0.182E+00   0.963E-04 -.631E-04 0.778E-04
   -.358E+02 -.200E+03 -.282E+02   0.346E+02 0.203E+03 0.266E+02   0.122E+01 -.315E+01 0.161E+01   -.235E-04 -.193E-03 0.251E-03
   0.537E+02 -.367E+03 0.177E+03   -.357E+02 0.412E+03 -.196E+03   -.180E+02 -.446E+02 0.185E+02   0.131E-03 -.218E-03 0.851E-04
   -.326E+03 0.235E+03 -.231E+03   0.363E+03 -.262E+03 0.258E+03   -.373E+02 0.264E+02 -.270E+02   0.995E-05 -.136E-03 0.750E-04
 -----------------------------------------------------------------------------------------------
   0.489E+02 0.180E+02 0.544E+01   0.568E-13 0.000E+00 0.000E+00   -.489E+02 -.180E+02 -.544E+01   0.720E-03 -.168E-02 0.124E-02
 
 
 POSITION                                       TOTAL-FORCE (eV/Angst)
 -----------------------------------------------------------------------------------
     11.37854     16.04981     14.88158         0.002215      0.001026      0.006143
     11.35207     14.46048     14.07371        -0.000083      0.007193     -0.005569
     11.57380     14.54722     15.83686        -0.001331     -0.006904     -0.004689
     13.50928     13.25272     15.34276         0.001645      0.001693      0.006054
     15.63516     12.75974     14.99427        -0.000077     -0.000684      0.000754
     16.92800     13.76017     13.12730        -0.001287     -0.002162     -0.001022
     15.68394     15.02175     12.90751        -0.000707     -0.000630     -0.000369
     15.28524     13.30934     12.60088        -0.002116     -0.001395      0.001119
     15.46719     16.33005     15.13938        -0.002947      0.000104     -0.000439
     16.87072     16.62125     17.59880         0.000568      0.001776      0.001397
     18.13625     16.54121     16.35600        -0.000207      0.001345     -0.000805
     16.88630     17.82362     16.27282        -0.001015      0.000444     -0.000298
     11.81294     15.04449     14.88509         0.000402     -0.000083     -0.000900
     13.30883     15.15722     14.66190         0.004116      0.008384     -0.004662
     15.46068     13.80705     14.71243         0.000979     -0.001570      0.001024
     15.85989     13.99245     13.24338        -0.001292     -0.001134      0.000558
     16.40442     14.58976     15.66016        -0.020910      0.020522     -0.015417
     17.07500     16.77334     16.52661        -0.002205      0.002572     -0.000261
     14.02397     14.03448     14.94845         0.001120     -0.001600      0.002945
     16.23321     15.93096     15.69793         0.003451     -0.008191      0.004791
     13.83169     16.20452     14.23853        -0.003182     -0.008147     -0.001396
     17.28299     13.98840     16.29357         0.022862     -0.012557      0.011042
 -----------------------------------------------------------------------------------
    total drift:                               -0.011037      0.006367     -0.004098


--------------------------------------------------------------------------------------------------------



  FREE ENERGIE OF THE ION-ELECTRON SYSTEM (eV)
  ---------------------------------------------------
  free  energy   TOTEN  =      -129.43476406 eV

  energy  without entropy=     -129.43476406  energy(sigma->0) =     -129.43476406
 
 d Force =-0.7422740E-06[-0.383E-05, 0.235E-05]  d Energy =-0.7487342E-06 0.646E-08
 d Force =-0.3596686E-01[-0.360E-01,-0.360E-01]  d Ewald  =-0.3596686E-01-0.156E-08


--------------------------------------------------------------------------------------------------------


    POTLOK:  cpu time   20.3219: real time   20.3062


--------------------------------------------------------------------------------------------------------


 NEB: the previous image is higher in energy: T
 NEB: the next image is higher in energy    : T
 NEB: image is at an extrema
 NEB: diff energy (min, max):     0.000270    0.001844

 NEB: Tangent
 ----------------------------------------------
     -0.01324     -0.05177     -0.06089
      0.04650     -0.00657     -0.14691
     -0.00768     -0.09772     -0.13870
      0.02778     -0.05212     -0.23390
      0.04723      0.01917     -0.21307
      0.09331      0.23665     -0.04624
      0.07519      0.23081      0.04025
      0.12409      0.26554     -0.15451
     -0.02027     -0.01671      0.13097
     -0.18596     -0.19573      0.21176
     -0.08970     -0.13357      0.31321
     -0.06456     -0.11030      0.30165
      0.00862     -0.04137     -0.10310
      0.01208      0.00300     -0.04498
      0.03577      0.04067     -0.10732
      0.08491      0.20365     -0.06348
     -0.02025     -0.04755      0.00967
     -0.09739     -0.12821      0.24357
      0.02372     -0.00949     -0.13936
     -0.03461     -0.05676      0.12070
      0.00494      0.04859      0.08203
     -0.05055     -0.10018     -0.00125

 NEB: forces: par spring, perp REAL, dneb     0.000024    0.049860    0.000000
 NEB: distance to prev, next image, angle between     1.267805    1.267800  170.871743
 NEB: projections on to tangent (spring, REAL)    -0.000024   -0.003130

 stress matrix after NEB project (eV)
     -3.68799     -0.08282      0.11748
     -0.08282     -3.44736     -0.13231
      0.11748     -0.13231     -3.84179
  FORCES: max atom, RMS     0.033041    0.010630
  FORCE total and by dimension    0.049860    0.022705
  Stress total and by dimension    6.349897    3.841785
 OPT: skip step - force has converged


--------------------------------------------------------------------------------------------------------


  
 reached required accuracy - stopping structural energy minimisation
     LOOP+:  cpu time 1819.8253: real time 1818.3978
    4ORBIT:  cpu time    0.0000: real time    0.0000

 total amount of memory used by VASP on root node  4333707. kBytes
========================================================================

   base      :      30000. kBytes
   nonlr-proj:       2402. kBytes
   fftplans  :     924480. kBytes
   grid      :    2089440. kBytes
   one-center:         67. kBytes
   wavefun   :    1287318. kBytes
 
  
  
 General timing and accounting informations for this job:
 ========================================================
  
                  Total CPU time used (sec):   226676.375
                            User time (sec):   225225.875
                          System time (sec):     1450.494
                         Elapsed time (sec):   226579.200
  
                   Maximum memory used (kb):     5900240.
                   Average memory used (kb):           0.
  
                          Minor page faults:    317597323
                          Major page faults:            7
                 Voluntary context switches:        13508
