unknown system                          
           1
    30.000000    0.000000    0.000000
     0.000000   30.000000    0.000000
     0.000000    0.000000   30.000000
   H    C    N    O 
  12   6   2   2
Direct configuration=     1
   0.37844744  0.53507441  0.49589030
   0.37784980  0.48083055  0.47154421
   0.38555272  0.48668217  0.53002917
   0.44950799  0.44127501  0.50962799
   0.52063238  0.42585941  0.50183331
   0.56414046  0.45561461  0.43855206
   0.52332236  0.49778948  0.42869470
   0.50937423  0.44036697  0.42152499
   0.51599322  0.54520794  0.50350917
   0.56422407  0.55570374  0.58464268
   0.60568509  0.55270429  0.54254076
   0.56388810  0.59529822  0.54002291
   0.39324407  0.50173944  0.49747313
   0.44312855  0.50567325  0.48981802
   0.51496389  0.46035621  0.49099301
   0.52862380  0.46406990  0.44184381
   0.54650854  0.48718996  0.52196425
   0.57036911  0.56037137  0.54872372
   0.46696540  0.46800157  0.49833935
   0.54184357  0.53202107  0.52180572
   0.46049664  0.54098578  0.47670601
   0.57524249  0.46718574  0.54391857
Direct configuration=     2
   0.37845417  0.53507135  0.49588623
   0.37785950  0.48083353  0.47152671
   0.38556529  0.48667106  0.53001301
   0.44951086  0.44128206  0.50963407
   0.52063790  0.42584471  0.50181747
   0.56414322  0.45565061  0.43854586
   0.52331761  0.49782086  0.42871460
   0.50937855  0.44040342  0.42150808
   0.51599350  0.54519700  0.50352152
   0.56419972  0.55567904  0.58465757
   0.60567469  0.55268972  0.54256877
   0.56388234  0.59528302  0.54004836
   0.39325042  0.50173576  0.49745824
   0.44313292  0.50566955  0.48981067
   0.51496087  0.46035087  0.49098251
   0.52862391  0.46409722  0.44183577
   0.54651462  0.48719269  0.52197136
   0.57035965  0.56035723  0.54874465
   0.46696237  0.46800010  0.49833420
   0.54183204  0.53201555  0.52180790
   0.46050013  0.54098050  0.47669473
   0.57524962  0.46717522  0.54391557
Direct configuration=     3
   0.37846414  0.53506663  0.49587995
   0.37787330  0.48083707  0.47149927
   0.38558343  0.48665435  0.52998833
   0.44951272  0.44128923  0.50964421
   0.52064520  0.42582666  0.50179200
   0.56414709  0.45570466  0.43853620
   0.52331014  0.49787050  0.42874299
   0.50938470  0.44045746  0.42148108
   0.51598568  0.54518474  0.50353414
   0.56416306  0.55564175  0.58468095
   0.60565968  0.55266717  0.54261074
   0.56387369  0.59526160  0.54008687
   0.39325990  0.50173103  0.49743853
   0.44313717  0.50566584  0.48979839
   0.51496045  0.46034390  0.49097147
   0.52862482  0.46413596  0.44182692
   0.54651938  0.48718526  0.52197649
   0.57034179  0.56033567  0.54877362
   0.46696405  0.46799775  0.49832510
   0.54182931  0.53200666  0.52182281
   0.46050614  0.54097327  0.47667767
   0.57525808  0.46716393  0.54391010
Direct configuration=     4
   0.37847698  0.53506042  0.49587140
   0.37789090  0.48084102  0.47146161
   0.38560623  0.48663177  0.52995539
   0.44951342  0.44129581  0.50965810
   0.52065356  0.42580813  0.50175552
   0.56415229  0.45577669  0.43852259
   0.52329999  0.49793925  0.42877928
   0.50939262  0.44052876  0.42144296
   0.51597137  0.54517077  0.50354825
   0.56411438  0.55559223  0.58471360
   0.60563983  0.55263667  0.54266728
   0.56386183  0.59523540  0.54013861
   0.39327169  0.50172535  0.49741472
   0.44314224  0.50566215  0.48978036
   0.51496521  0.46033602  0.49096154
   0.52862707  0.46418558  0.44181906
   0.54652073  0.48716529  0.52197721
   0.57031740  0.56030638  0.54881281
   0.46697134  0.46799322  0.49831240
   0.54183168  0.53199290  0.52184758
   0.46051522  0.54096550  0.47665489
   0.57526794  0.46715179  0.54390268
Direct configuration=     5
   0.37849210  0.53505308  0.49586055
   0.37791236  0.48084592  0.47141423
   0.38563237  0.48660266  0.52991503
   0.44951471  0.44130291  0.50967424
   0.52066271  0.42579023  0.50170694
   0.56415957  0.45586680  0.43850430
   0.52328759  0.49802606  0.42882392
   0.50940285  0.44061781  0.42139334
   0.51595798  0.54515223  0.50356938
   0.56405402  0.55553088  0.58475672
   0.60561470  0.55259842  0.54273988
   0.56384624  0.59520507  0.54020418
   0.39328526  0.50171780  0.49738566
   0.44315172  0.50565721  0.48975620
   0.51497540  0.46032821  0.49095114
   0.52863042  0.46424752  0.44181191
   0.54651979  0.48713771  0.52197482
   0.57029082  0.56027025  0.54886598
   0.46698094  0.46798523  0.49829737
   0.54182503  0.53197131  0.52187118
   0.46052744  0.54095826  0.47662663
   0.57527987  0.46713554  0.54389422
Direct configuration=     6
   0.37850885  0.53504464  0.49584740
   0.37793771  0.48085235  0.47135791
   0.38566032  0.48656621  0.52986814
   0.44951840  0.44131102  0.50969089
   0.52067302  0.42577190  0.50164570
   0.56416970  0.45597487  0.43848055
   0.52327378  0.49812843  0.42887783
   0.50941655  0.44072551  0.42133287
   0.51594881  0.54512817  0.50360000
   0.56398224  0.55545786  0.58481181
   0.60558483  0.55255206  0.54282990
   0.56382672  0.59516980  0.54028469
   0.39330076  0.50170774  0.49734922
   0.44316846  0.50565009  0.48972586
   0.51498821  0.46032090  0.49093642
   0.52863475  0.46432495  0.44180372
   0.54652010  0.48710942  0.52197331
   0.57026164  0.56022730  0.54893337
   0.46699011  0.46797447  0.49828071
   0.54180390  0.53193951  0.52188967
   0.46054237  0.54095116  0.47659346
   0.57529267  0.46711274  0.54388437
Direct configuration=     7
   0.37852896  0.53503337  0.49583003
   0.37797002  0.48086147  0.47128506
   0.38569185  0.48651690  0.52980812
   0.44952591  0.44131976  0.50970856
   0.52068669  0.42574903  0.50156234
   0.56418450  0.45611614  0.43844703
   0.52325758  0.49825917  0.42894896
   0.50943775  0.44086889  0.42125450
   0.51593731  0.54509822  0.50364061
   0.56388928  0.55536302  0.58488813
   0.60554715  0.55249012  0.54295130
   0.56380045  0.59512283  0.54039334
   0.39332176  0.50169335  0.49729952
   0.44319344  0.50563958  0.48968595
   0.51500101  0.46031375  0.49091119
   0.52864136  0.46443011  0.44178906
   0.54652370  0.48707672  0.52197502
   0.57021860  0.56016929  0.54902126
   0.46700165  0.46796229  0.49825942
   0.54177729  0.53189534  0.52191630
   0.46056206  0.54094229  0.47655139
   0.57530556  0.46707944  0.54387070
Direct configuration=     8
   0.37855335  0.53501687  0.49580723
   0.37800982  0.48087352  0.47119076
   0.38572610  0.48645237  0.52972893
   0.44953852  0.44132754  0.50972539
   0.52070537  0.42571934  0.50145002
   0.56420446  0.45629938  0.43840056
   0.52323888  0.49842832  0.42903983
   0.50947006  0.44105871  0.42115463
   0.51591483  0.54506420  0.50368763
   0.56376998  0.55524120  0.58499053
   0.60549810  0.55240822  0.54311331
   0.56376529  0.59505871  0.54053880
   0.39335168  0.50167546  0.49723469
   0.44322090  0.50562649  0.48963558
   0.51501215  0.46030642  0.49087136
   0.52865389  0.46456524  0.44176397
   0.54652744  0.48703138  0.52197828
   0.57015283  0.56008821  0.54913346
   0.46702091  0.46795068  0.49823072
   0.54176158  0.53184707  0.52196961
   0.46058889  0.54093016  0.47649882
   0.57531883  0.46703163  0.54385364
Direct configuration=     9
   0.37858371  0.53499215  0.49577748
   0.37805848  0.48088938  0.47106910
   0.38576260  0.48637062  0.52962079
   0.44956111  0.44133613  0.50973682
   0.52073059  0.42568232  0.50129896
   0.56423254  0.45653535  0.43833720
   0.52321808  0.49864977  0.42915223
   0.50951598  0.44130563  0.42102534
   0.51588997  0.54501984  0.50375083
   0.56361819  0.55508652  0.58512455
   0.60542868  0.55230235  0.54332946
   0.56371794  0.59496995  0.54073207
   0.39338912  0.50165151  0.49715532
   0.44324907  0.50561292  0.48957313
   0.51502734  0.46030021  0.49081404
   0.52867506  0.46473496  0.44172745
   0.54652917  0.48697092  0.52198168
   0.57007116  0.55998352  0.54928670
   0.46704672  0.46793736  0.49819282
   0.54173906  0.53179697  0.52204275
   0.46062541  0.54091255  0.47643406
   0.57533387  0.46696025  0.54383493
Direct configuration=    10
   0.37862097  0.53495681  0.49573976
   0.37811842  0.48091119  0.47091588
   0.38579939  0.48626720  0.52947796
   0.44959870  0.44134503  0.50973891
   0.52076295  0.42563995  0.50109825
   0.56427519  0.45683298  0.43825304
   0.52319666  0.49893187  0.42928917
   0.50957451  0.44161515  0.42085486
   0.51587195  0.54496088  0.50384112
   0.56342689  0.55489252  0.58530031
   0.60533264  0.55216682  0.54361304
   0.56365483  0.59485115  0.54098498
   0.39343055  0.50162174  0.49705516
   0.44328597  0.50559594  0.48949819
   0.51505674  0.46029303  0.49074052
   0.52870555  0.46496210  0.44167835
   0.54653483  0.48690454  0.52198980
   0.56998208  0.55986144  0.54949993
   0.46707378  0.46792359  0.49814234
   0.54168829  0.53171822  0.52212338
   0.46067181  0.54088708  0.47635427
   0.57534114  0.46686195  0.54380845
Direct configuration=    11
   0.37866341  0.53491566  0.49569341
   0.37819145  0.48094163  0.47072635
   0.38583246  0.48613572  0.52930080
   0.44965051  0.44134667  0.50973376
   0.52080495  0.42558962  0.50084027
   0.56433448  0.45720097  0.43814502
   0.52317468  0.49928719  0.42945123
   0.50964881  0.44199869  0.42063912
   0.51583757  0.54489624  0.50394447
   0.56318913  0.55465293  0.58553385
   0.60522076  0.55199264  0.54397034
   0.56357207  0.59470976  0.54130456
   0.39347421  0.50158161  0.49692234
   0.44333153  0.50557025  0.48941259
   0.51510039  0.46029918  0.49065045
   0.52874232  0.46524867  0.44161683
   0.54653123  0.48681112  0.52198802
   0.56985136  0.55970326  0.54976400
   0.46711982  0.46790859  0.49807377
   0.54166215  0.53161466  0.52226090
   0.46072827  0.54085716  0.47625036
   0.57534221  0.46673898  0.54377514
Direct configuration=    12
   0.37871015  0.53487607  0.49563904
   0.37827000  0.48097523  0.47048572
   0.38585755  0.48597632  0.52908614
   0.44972999  0.44135130  0.50972808
   0.52085987  0.42554465  0.50052546
   0.56439461  0.45764373  0.43801691
   0.52314947  0.49971659  0.42963874
   0.50974084  0.44246633  0.42039290
   0.51584497  0.54479526  0.50410145
   0.56290684  0.55437319  0.58582734
   0.60508496  0.55178451  0.54440158
   0.56346249  0.59455259  0.54168379
   0.39353169  0.50153498  0.49677882
   0.44339470  0.50555130  0.48929829
   0.51514577  0.46030720  0.49053178
   0.52879361  0.46558233  0.44153279
   0.54654989  0.48668201  0.52200333
   0.56971086  0.55949974  0.55008604
   0.46717794  0.46787468  0.49800326
   0.54155763  0.53152527  0.52238472
   0.46078677  0.54080799  0.47612000
   0.57534312  0.46657999  0.54373137
Direct configuration=    13
   0.37876751  0.53483081  0.49558561
   0.37836016  0.48102923  0.47023221
   0.38587510  0.48579759  0.52886288
   0.44981275  0.44133098  0.50976188
   0.52092617  0.42550096  0.50018602
   0.56446166  0.45811774  0.43788090
   0.52311996  0.50015698  0.42984467
   0.50982608  0.44296451  0.42013561
   0.51573307  0.54475358  0.50418041
   0.56260782  0.55407850  0.58612762
   0.60494570  0.55155099  0.54484483
   0.56335067  0.59435304  0.54209398
   0.39358660  0.50149714  0.49660409
   0.44343765  0.50544963  0.48919226
   0.51519919  0.46028964  0.49040170
   0.52883006  0.46597958  0.44145546
   0.54647919  0.48665602  0.52195389
   0.56949397  0.55932709  0.55040344
   0.46725674  0.46789815  0.49792064
   0.54165937  0.53125441  0.52267869
   0.46086815  0.54079232  0.47593419
   0.57540608  0.46639240  0.54371647
Direct configuration=    14
   0.37877037  0.53483665  0.49558909
   0.37835676  0.48103206  0.47023927
   0.38587534  0.48580532  0.52886529
   0.44982531  0.44135366  0.50977419
   0.52092767  0.42549803  0.50020564
   0.56445046  0.45810384  0.43788872
   0.52311186  0.50014725  0.42984252
   0.50981808  0.44295054  0.42015259
   0.51580213  0.54471218  0.50422120
   0.56262192  0.55409488  0.58610626
   0.60493598  0.55156539  0.54482489
   0.56334460  0.59436745  0.54206333
   0.39358556  0.50149286  0.49661648
   0.44345471  0.50550919  0.48917252
   0.51519940  0.46031398  0.49040615
   0.52882815  0.46595126  0.44146193
   0.54657513  0.48654413  0.52201639
   0.56954398  0.55931085  0.55041045
   0.46724087  0.46785947  0.49794541
   0.54153092  0.53137201  0.52258427
   0.46084990  0.54074887  0.47594280
   0.57535456  0.46643140  0.54366806
Direct configuration=    15
   0.37877083  0.53483747  0.49558997
   0.37835617  0.48103281  0.47024080
   0.38587542  0.48580663  0.52886645
   0.44982516  0.44135427  0.50977907
   0.52092746  0.42549836  0.50020873
   0.56444867  0.45810073  0.43789021
   0.52311043  0.50014395  0.42984229
   0.50981591  0.44294703  0.42015601
   0.51580272  0.54471166  0.50421981
   0.56262468  0.55409794  0.58610292
   0.60493686  0.55156718  0.54481943
   0.56334500  0.59436853  0.54205840
   0.39358557  0.50149363  0.49661790
   0.44345297  0.50550653  0.48917382
   0.51519910  0.46031270  0.49040885
   0.52882706  0.46594806  0.44146362
   0.54656859  0.48655246  0.52201080
   0.56954499  0.55931244  0.55040603
   0.46724141  0.46786114  0.49794727
   0.54153090  0.53137007  0.52258284
   0.46085064  0.54074968  0.47593983
   0.57536314  0.46642799  0.54367242
Direct configuration=    16
   0.37877176  0.53483913  0.49559172
   0.37835499  0.48103431  0.47024382
   0.38587556  0.48580919  0.52886877
   0.44982500  0.44135564  0.50978873
   0.52092710  0.42549896  0.50021492
   0.56444519  0.45809457  0.43789315
   0.52310757  0.50013739  0.42984185
   0.50981160  0.44294007  0.42016281
   0.51580382  0.54471063  0.50421703
   0.56263015  0.55410399  0.58609626
   0.60493860  0.55157070  0.54480860
   0.56334576  0.59437065  0.54204860
   0.39358557  0.50149511  0.49662067
   0.44344991  0.50550209  0.48917606
   0.51519851  0.46031044  0.49041408
   0.52882487  0.46594177  0.44146696
   0.54655794  0.48656666  0.52200147
   0.56954706  0.55931553  0.55039736
   0.46724229  0.46786405  0.49795112
   0.54153065  0.53136697  0.52257994
   0.46085178  0.54075062  0.47593414
   0.57537798  0.46642279  0.54367939
Direct configuration=    17
   0.37877322  0.53484163  0.49559433
   0.37835322  0.48103660  0.47024826
   0.38587570  0.48581292  0.52887224
   0.44982511  0.44135807  0.50980306
   0.52092671  0.42549972  0.50022426
   0.56444011  0.45808544  0.43789751
   0.52310329  0.50012762  0.42984126
   0.50980515  0.44292977  0.42017287
   0.51580535  0.54470916  0.50421279
   0.56263827  0.55411292  0.58608628
   0.60494113  0.55157585  0.54479252
   0.56334678  0.59437375  0.54203398
   0.39358548  0.50149727  0.49662477
   0.44344638  0.50549738  0.48917866
   0.51519765  0.46030775  0.49042154
   0.52882143  0.46593258  0.44147184
   0.54654812  0.48658197  0.52199199
   0.56955019  0.55931993  0.55038465
   0.46724308  0.46786743  0.49795723
   0.54152989  0.53136412  0.52257565
   0.46085271  0.54075048  0.47592617
   0.57539470  0.46641891  0.54368563
Direct configuration=    18
   0.37877522  0.53484489  0.49559768
   0.37835095  0.48103965  0.47025386
   0.38587578  0.48581753  0.52887671
   0.44982582  0.44136181  0.50982142
   0.52092643  0.42550045  0.50023641
   0.56443375  0.45807382  0.43790304
   0.52309776  0.50011510  0.42984062
   0.50979679  0.44291663  0.42018568
   0.51580706  0.54470736  0.50420719
   0.56264862  0.55412427  0.58607336
   0.60494427  0.55158231  0.54477196
   0.56334790  0.59437762  0.54201516
   0.39358522  0.50149993  0.49662984
   0.44344340  0.50549424  0.48918083
   0.51519662  0.46030537  0.49043056
   0.52881680  0.46592117  0.44147799
   0.54654444  0.48659277  0.52198648
   0.56955426  0.55932528  0.55036874
   0.46724327  0.46787030  0.49796564
   0.54152848  0.53136314  0.52257030
   0.46085275  0.54074796  0.47591658
   0.57540810  0.46641968  0.54368743
Direct configuration=    19
   0.37877770  0.53484875  0.49560158
   0.37834831  0.48104338  0.47026014
   0.38587572  0.48582262  0.52888188
   0.44982731  0.44136683  0.50984279
   0.52092639  0.42550101  0.50025062
   0.56442662  0.45806056  0.43790936
   0.52309128  0.50010067  0.42984006
   0.50978699  0.44290161  0.42020038
   0.51580863  0.54470541  0.50420045
   0.56266051  0.55413725  0.58605835
   0.60494776  0.55158956  0.54474826
   0.56334894  0.59438193  0.54199335
   0.39358475  0.50150289  0.49663541
   0.44344167  0.50549365  0.48918202
   0.51519550  0.46030377  0.49044035
   0.52881115  0.46590855  0.44148499
   0.54654942  0.48659578  0.52198696
   0.56955892  0.55933115  0.55035084
   0.46724260  0.46787204  0.49797604
   0.54152658  0.53136477  0.52256454
   0.46085153  0.54074254  0.47590603
   0.57541538  0.46642656  0.54368308
Direct configuration=    20
   0.37878064  0.53485311  0.49560588
   0.37834543  0.48104777  0.47026665
   0.38587548  0.48582781  0.52888747
   0.44982966  0.44137296  0.50986657
   0.52092666  0.42550128  0.50026615
   0.56441908  0.45804643  0.43791610
   0.52308411  0.50008510  0.42983967
   0.50977609  0.44288549  0.42021625
   0.51580974  0.54470339  0.50419272
   0.56267335  0.55415128  0.58604199
   0.60495144  0.55159722  0.54472254
   0.56334976  0.59438639  0.54196958
   0.39358412  0.50150603  0.49664101
   0.44344135  0.50549543  0.48918213
   0.51519425  0.46030305  0.49045054
   0.52880466  0.46589559  0.44149250
   0.54656204  0.48659117  0.52199283
   0.56956381  0.55933734  0.55033200
   0.46724115  0.46787255  0.49798806
   0.54152463  0.53136866  0.52255908
   0.46084914  0.54073445  0.47589460
   0.57541707  0.46643879  0.54367315
Direct configuration=    21
   0.37878449  0.53485853  0.49561106
   0.37834199  0.48105357  0.47027359
   0.38587487  0.48583329  0.52889385
   0.44983331  0.44138082  0.50989600
   0.52092741  0.42550105  0.50028423
   0.56441051  0.45803046  0.43792376
   0.52307540  0.50006728  0.42983958
   0.50976281  0.44286708  0.42023471
   0.51581004  0.54470103  0.50418301
   0.56268830  0.55416767  0.58602301
   0.60495561  0.55160582  0.54469244
   0.56335028  0.59439119  0.54194170
   0.39358335  0.50150973  0.49664679
   0.44344228  0.50549874  0.48918124
   0.51519281  0.46030297  0.49046203
   0.52879642  0.46588171  0.44150134
   0.54658019  0.48658078  0.52200220
   0.56956918  0.55934462  0.55031072
   0.46723907  0.46787213  0.49800303
   0.54152315  0.53137400  0.52255443
   0.46084560  0.54072325  0.47588005
   0.57541664  0.46645556  0.54365870
Direct configuration=    22
   0.37878943  0.53486514  0.49561707
   0.37833802  0.48106120  0.47027979
   0.38587375  0.48583833  0.52890028
   0.44983819  0.44138969  0.50993206
   0.52092879  0.42550019  0.50030344
   0.56440115  0.45801410  0.43793172
   0.52306517  0.50004872  0.42984002
   0.50974721  0.44284777  0.42025496
   0.51580924  0.54469796  0.50417161
   0.56270463  0.55418584  0.58600284
   0.60496002  0.55161484  0.54465927
   0.56335019  0.59439583  0.54191098
   0.39358277  0.50151412  0.49665199
   0.44344305  0.50549948  0.48918028
   0.51519127  0.46030237  0.49047456
   0.52878630  0.46586823  0.44151150
   0.54659198  0.48657460  0.52200650
   0.56957418  0.55935328  0.55028846
   0.46723769  0.46787235  0.49802033
   0.54152304  0.53137679  0.52255204
   0.46084240  0.54071157  0.47586020
   0.57542524  0.46646887  0.54364756
Direct configuration=    23
   0.37878954  0.53486523  0.49561712
   0.37833798  0.48106140  0.47027953
   0.38587369  0.48583818  0.52890013
   0.44983829  0.44138967  0.50993269
   0.52092886  0.42550013  0.50030329
   0.56440110  0.45801432  0.43793165
   0.52306505  0.50004896  0.42984010
   0.50974707  0.44284796  0.42025497
   0.51580920  0.54469780  0.50417161
   0.56270459  0.55418586  0.58600301
   0.60495996  0.55161478  0.54465930
   0.56335007  0.59439575  0.54191099
   0.39358283  0.50151416  0.49665186
   0.44344287  0.50549884  0.48918034
   0.51519127  0.46030217  0.49047458
   0.52878621  0.46586845  0.44151154
   0.54659047  0.48657592  0.52200538
   0.56957412  0.55935334  0.55028861
   0.46723792  0.46787257  0.49802042
   0.54152305  0.53137618  0.52255231
   0.46084261  0.54071180  0.47585953
   0.57542695  0.46646779  0.54364853
Direct configuration=    24
   0.37878976  0.53486541  0.49561719
   0.37833792  0.48106179  0.47027895
   0.38587355  0.48583785  0.52889978
   0.44983850  0.44138962  0.50993385
   0.52092903  0.42550002  0.50030289
   0.56440104  0.45801488  0.43793146
   0.52306484  0.50004954  0.42984026
   0.50974682  0.44284847  0.42025489
   0.51580914  0.54469748  0.50417169
   0.56270444  0.55418581  0.58600346
   0.60495980  0.55161460  0.54465950
   0.56334981  0.59439553  0.54191115
   0.39358295  0.50151421  0.49665156
   0.44344253  0.50549762  0.48918042
   0.51519130  0.46030180  0.49047457
   0.52878607  0.46586899  0.44151156
   0.54658763  0.48657836  0.52200332
   0.56957397  0.55935340  0.55028903
   0.46723837  0.46787299  0.49802054
   0.54152304  0.53137497  0.52255288
   0.46084300  0.54071221  0.47585821
   0.57543018  0.46646571  0.54365032
Direct configuration=    25
   0.37879011  0.53486567  0.49561729
   0.37833783  0.48106238  0.47027805
   0.38587334  0.48583732  0.52889921
   0.44983886  0.44138957  0.50993557
   0.52092931  0.42549983  0.50030224
   0.56440095  0.45801578  0.43793118
   0.52306453  0.50005047  0.42984052
   0.50974648  0.44284929  0.42025474
   0.51580905  0.54469698  0.50417183
   0.56270419  0.55418571  0.58600418
   0.60495953  0.55161431  0.54465986
   0.56334939  0.59439518  0.54191144
   0.39358313  0.50151429  0.49665109
   0.44344210  0.50549595  0.48918046
   0.51519134  0.46030130  0.49047452
   0.52878586  0.46586983  0.44151157
   0.54658383  0.48658157  0.52200057
   0.56957374  0.55935343  0.55028970
   0.46723901  0.46787353  0.49802074
   0.54152296  0.53137330  0.52255375
   0.46084353  0.54071271  0.47585625
   0.57543461  0.46646286  0.54365270
Direct configuration=    26
   0.37879060  0.53486603  0.49561743
   0.37833772  0.48106322  0.47027679
   0.38587304  0.48583659  0.52889840
   0.44983942  0.44138957  0.50993795
   0.52092972  0.42549957  0.50030137
   0.56440082  0.45801703  0.43793078
   0.52306409  0.50005177  0.42984089
   0.50974600  0.44285046  0.42025454
   0.51580895  0.54469629  0.50417204
   0.56270383  0.55418555  0.58600517
   0.60495915  0.55161389  0.54466039
   0.56334879  0.59439470  0.54191183
   0.39358337  0.50151437  0.49665046
   0.44344166  0.50549398  0.48918037
   0.51519141  0.46030070  0.49047443
   0.52878559  0.46587099  0.44151156
   0.54657963  0.48658499  0.52199755
   0.56957343  0.55935342  0.55029066
   0.46723981  0.46787414  0.49802108
   0.54152273  0.53137129  0.52255492
   0.46084415  0.54071312  0.47585364
   0.57543978  0.46645959  0.54365525
Direct configuration=    27
   0.37879128  0.53486651  0.49561761
   0.37833756  0.48106434  0.47027515
   0.38587264  0.48583564  0.52889731
   0.44984024  0.44138969  0.50994108
   0.52093028  0.42549923  0.50030027
   0.56440063  0.45801866  0.43793027
   0.52306350  0.50005346  0.42984138
   0.50974536  0.44285199  0.42025430
   0.51580886  0.54469537  0.50417234
   0.56270337  0.55418537  0.58600643
   0.60495863  0.55161335  0.54466104
   0.56334798  0.59439408  0.54191229
   0.39358364  0.50151444  0.49664965
   0.44344134  0.50549199  0.48918002
   0.51519153  0.46030007  0.49047428
   0.52878521  0.46587249  0.44151154
   0.54657589  0.48658782  0.52199488
   0.56957306  0.55935331  0.55029188
   0.46724071  0.46787467  0.49802164
   0.54152224  0.53136918  0.52255639
   0.46084474  0.54071319  0.47585035
   0.57544499  0.46645642  0.54365738
Direct configuration=    28
   0.37879212  0.53486709  0.49561785
   0.37833736  0.48106569  0.47027322
   0.38587217  0.48583454  0.52889601
   0.44984132  0.44138999  0.50994484
   0.52093097  0.42549880  0.50029905
   0.56440035  0.45802057  0.43792969
   0.52306276  0.50005541  0.42984198
   0.50974458  0.44285378  0.42025408
   0.51580879  0.54469427  0.50417269
   0.56270288  0.55418518  0.58600786
   0.60495801  0.55161272  0.54466174
   0.56334699  0.59439337  0.54191273
   0.39358392  0.50151449  0.49664874
   0.44344125  0.50549029  0.48917935
   0.51519169  0.46029949  0.49047408
   0.52878474  0.46587419  0.44151151
   0.54657344  0.48658940  0.52199316
   0.56957266  0.55935308  0.55029326
   0.46724159  0.46787502  0.49802245
   0.54152145  0.53136726  0.52255803
   0.46084521  0.54071273  0.47584658
   0.57544943  0.46645390  0.54365855
Direct configuration=    29
   0.37879321  0.53486780  0.49561816
   0.37833711  0.48106740  0.47027088
   0.38587158  0.48583320  0.52889440
   0.44984277  0.44139053  0.50994956
   0.52093185  0.42549826  0.50029766
   0.56439993  0.45802284  0.43792901
   0.52306180  0.50005774  0.42984273
   0.50974358  0.44285592  0.42025389
   0.51580874  0.54469290  0.50417312
   0.56270235  0.55418501  0.58600950
   0.60495724  0.55161198  0.54466248
   0.56334575  0.59439253  0.54191314
   0.39358423  0.50151453  0.49664767
   0.44344145  0.50548891  0.48917826
   0.51519191  0.46029897  0.49047386
   0.52878414  0.46587619  0.44151147
   0.54657261  0.48658944  0.52199260
   0.56957220  0.55935271  0.55029485
   0.46724246  0.46787514  0.49802364
   0.54152028  0.53136552  0.52255996
   0.46084551  0.54071155  0.47584210
   0.57545303  0.46645217  0.54365853
Direct configuration=    30
   0.37879457  0.53486867  0.49561857
   0.37833678  0.48106951  0.47026814
   0.38587087  0.48583166  0.52889247
   0.44984464  0.44139140  0.50995538
   0.52093292  0.42549760  0.50029617
   0.56439933  0.45802544  0.43792825
   0.52306057  0.50006039  0.42984367
   0.50974231  0.44285838  0.42025381
   0.51580870  0.54469125  0.50417358
   0.56270183  0.55418493  0.58601131
   0.60495634  0.55161114  0.54466317
   0.56334424  0.59439159  0.54191340
   0.39358455  0.50151455  0.49664648
   0.44344201  0.50548803  0.48917665
   0.51519220  0.46029855  0.49047364
   0.52878336  0.46587842  0.44151142
   0.54657391  0.48658749  0.52199357
   0.56957167  0.55935218  0.55029657
   0.46724327  0.46787495  0.49802529
   0.54151869  0.53136411  0.52256218
   0.46084558  0.54070946  0.47583685
   0.57545538  0.46645156  0.54365692
Direct configuration=    31
   0.37879627  0.53486974  0.49561913
   0.37833635  0.48107211  0.47026499
   0.38587003  0.48582989  0.52889020
   0.44984699  0.44139270  0.50996261
   0.52093419  0.42549678  0.50029463
   0.56439846  0.45802835  0.43792743
   0.52305899  0.50006331  0.42984481
   0.50974067  0.44286112  0.42025393
   0.51580867  0.54468925  0.50417404
   0.56270142  0.55418504  0.58601321
   0.60495530  0.55161025  0.54466364
   0.56334244  0.59439056  0.54191337
   0.39358487  0.50151458  0.49664516
   0.44344298  0.50548773  0.48917447
   0.51519261  0.46029824  0.49047351
   0.52878236  0.46588084  0.44151139
   0.54657763  0.48658330  0.52199621
   0.56957101  0.55935150  0.55029831
   0.46724400  0.46787440  0.49802756
   0.54151667  0.53136306  0.52256475
   0.46084539  0.54070625  0.47583065
   0.57545638  0.46645226  0.54365350
Direct configuration=    32
   0.37879845  0.53487105  0.49561991
   0.37833579  0.48107537  0.47026138
   0.38586904  0.48582791  0.52888752
   0.44984994  0.44139457  0.50997185
   0.52093570  0.42549576  0.50029314
   0.56439718  0.45803152  0.43792657
   0.52305690  0.50006641  0.42984623
   0.50973850  0.44286408  0.42025444
   0.51580862  0.54468683  0.50417442
   0.56270127  0.55418552  0.58601509
   0.60495416  0.55160935  0.54466362
   0.56334031  0.59438945  0.54191279
   0.39358519  0.50151467  0.49664374
   0.44344433  0.50548789  0.48917168
   0.51519316  0.46029799  0.49047364
   0.52878101  0.46588337  0.44151147
   0.54658352  0.48657718  0.52200028
   0.56957015  0.55935070  0.55029986
   0.46724469  0.46787352  0.49803066
   0.54151427  0.53136222  0.52256781
   0.46084497  0.54070176  0.47582306
   0.57545653  0.46645413  0.54364833
Direct configuration=    33
   0.37880127  0.53487273  0.49562106
   0.37833502  0.48107957  0.47025727
   0.38586785  0.48582570  0.52888437
   0.44985358  0.44139717  0.50998408
   0.52093746  0.42549446  0.50029185
   0.56439525  0.45803482  0.43792571
   0.52305407  0.50006954  0.42984803
   0.50973550  0.44286710  0.42025563
   0.51580851  0.54468382  0.50417455
   0.56270166  0.55418671  0.58601675
   0.60495294  0.55160858  0.54466265
   0.56333781  0.59438829  0.54191124
   0.39358556  0.50151492  0.49664223
   0.44344582  0.50548792  0.48916841
   0.51519392  0.46029763  0.49047436
   0.52877914  0.46588591  0.44151182
   0.54659008  0.48657065  0.52200453
   0.56956898  0.55934992  0.55030084
   0.46724548  0.46787255  0.49803492
   0.54151167  0.53136101  0.52257159
   0.46084454  0.54069603  0.47581330
   0.57545760  0.46645625  0.54364228
Direct configuration=    34
   0.37880477  0.53487481  0.49562266
   0.37833399  0.48108481  0.47025277
   0.38586648  0.48582333  0.52888082
   0.44985776  0.44140045  0.50999981
   0.52093937  0.42549286  0.50029092
   0.56439255  0.45803804  0.43792490
   0.52305036  0.50007241  0.42985025
   0.50973150  0.44286994  0.42025769
   0.51580831  0.54468014  0.50417433
   0.56270279  0.55418885  0.58601797
   0.60495168  0.55160807  0.54466034
   0.56333499  0.59438714  0.54190841
   0.39358600  0.50151544  0.49664067
   0.44344704  0.50548684  0.48916500
   0.51519486  0.46029692  0.49047593
   0.52877663  0.46588830  0.44151260
   0.54659493  0.48656624  0.52200704
   0.56956742  0.55934937  0.55030096
   0.46724661  0.46787191  0.49804037
   0.54150909  0.53135871  0.52257612
   0.46084445  0.54068961  0.47580086
   0.57546209  0.46645706  0.54363705
Direct configuration=    35
   0.37880901  0.53487735  0.49562480
   0.37833266  0.48109120  0.47024794
   0.38586491  0.48582084  0.52887693
   0.44986242  0.44140441  0.51001960
   0.52094141  0.42549095  0.50029050
   0.56438896  0.45804098  0.43792419
   0.52304563  0.50007478  0.42985293
   0.50972632  0.44287238  0.42026083
   0.51580810  0.54467570  0.50417374
   0.56270491  0.55419222  0.58601851