   6   6   0   0
  0.4500000E+04  0.3000000E-08  0.3000000E-08  0.3000000E-08  0.0000000E+00
  1.000000000000000E-004
  CAR 
 unknown system                          
      1.78815385    -26.08539288  301     -6.29481177      1.00000000
    -26.085  0.0000E+00  0.0000E+00
    -25.992  0.0000E+00  0.0000E+00
    -25.900  0.0000E+00  0.0000E+00
    -25.807  0.0000E+00  0.0000E+00
    -25.714  0.0000E+00  0.0000E+00
    -25.621  0.0000E+00  0.0000E+00
    -25.528  0.0000E+00  0.0000E+00
    -25.435  0.0000E+00  0.0000E+00
    -25.342  0.0000E+00  0.0000E+00
    -25.249  0.7966E-17  0.7401E-18
    -25.156  0.1306E-14  0.1221E-15
    -25.063  0.1662E-12  0.1556E-13
    -24.970  0.1379E-10  0.1297E-11
    -24.878  0.7492E-09  0.7091E-10
    -24.785  0.2665E-07  0.2547E-08
    -24.692  0.6213E-06  0.6027E-07
    -24.599  0.9505E-05  0.9434E-06
    -24.506  0.9552E-04  0.9818E-05
    -24.413  0.6311E-03  0.6846E-04
    -24.320  0.2744E-02  0.3234E-03
    -24.227  0.7861E-02  0.1054E-02
    -24.134  0.1484E-01  0.2433E-02
    -24.041  0.1847E-01  0.4149E-02
    -23.948  0.1516E-01  0.5557E-02
    -23.856  0.8206E-02  0.6320E-02
    -23.763  0.2927E-02  0.6592E-02
    -23.670  0.6878E-03  0.6656E-02
    -23.577  0.1064E-03  0.6666E-02
    -23.484  0.1082E-04  0.6667E-02
    -23.391  0.7225E-06  0.6667E-02
    -23.298  0.3167E-07  0.6667E-02
    -23.205  0.9101E-09  0.6667E-02
    -23.112  0.1713E-10  0.6667E-02
    -23.019  0.2109E-12  0.6667E-02
    -22.926  0.1697E-14  0.6667E-02
    -22.833  0.7966E-17  0.6667E-02
    -22.741  0.0000E+00  0.6667E-02
    -22.648  0.0000E+00  0.6667E-02
    -22.555  0.0000E+00  0.6667E-02
    -22.462  0.0000E+00  0.6667E-02
    -22.369  0.0000E+00  0.6667E-02
    -22.276  0.0000E+00  0.6667E-02
    -22.183  0.0000E+00  0.6667E-02
    -22.090  0.0000E+00  0.6667E-02
    -21.997  0.0000E+00  0.6667E-02
    -21.904  0.0000E+00  0.6667E-02
    -21.811  0.0000E+00  0.6667E-02
    -21.719  0.0000E+00  0.6667E-02
    -21.626  0.0000E+00  0.6667E-02
    -21.533  0.0000E+00  0.6667E-02
    -21.440  0.0000E+00  0.6667E-02
    -21.347  0.0000E+00  0.6667E-02
    -21.254  0.0000E+00  0.6667E-02
    -21.161  0.0000E+00  0.6667E-02
    -21.068  0.0000E+00  0.6667E-02
    -20.975  0.0000E+00  0.6667E-02
    -20.882  0.0000E+00  0.6667E-02
    -20.789  0.0000E+00  0.6667E-02
    -20.697  0.0000E+00  0.6667E-02
    -20.604  0.0000E+00  0.6667E-02
    -20.511  0.0000E+00  0.6667E-02
    -20.418  0.0000E+00  0.6667E-02
    -20.325  0.0000E+00  0.6667E-02
    -20.232  0.0000E+00  0.6667E-02
    -20.139  0.0000E+00  0.6667E-02
    -20.046  0.0000E+00  0.6667E-02
    -19.953  0.0000E+00  0.6667E-02
    -19.860  0.0000E+00  0.6667E-02
    -19.767  0.0000E+00  0.6667E-02
    -19.674  0.0000E+00  0.6667E-02
    -19.582  0.0000E+00  0.6667E-02
    -19.489  0.0000E+00  0.6667E-02
    -19.396  0.0000E+00  0.6667E-02
    -19.303  0.0000E+00  0.6667E-02
    -19.210  0.0000E+00  0.6667E-02
    -19.117  0.0000E+00  0.6667E-02
    -19.024  0.7966E-17  0.6667E-02
    -18.931  0.1267E-14  0.6667E-02
    -18.838  0.1612E-12  0.6667E-02
    -18.745  0.1342E-10  0.6667E-02
    -18.652  0.7308E-09  0.6667E-02
    -18.560  0.2607E-07  0.6667E-02
    -18.467  0.6094E-06  0.6667E-02
    -18.374  0.9349E-05  0.6668E-02
    -18.281  0.9421E-04  0.6676E-02
    -18.188  0.6242E-03  0.6734E-02
    -18.095  0.2722E-02  0.6987E-02
    -18.002  0.7817E-02  0.7714E-02
    -17.909  0.1480E-01  0.9088E-02
    -17.816  0.1847E-01  0.1080E-01
    -17.723  0.1520E-01  0.1222E-01
    -17.630  0.8250E-02  0.1298E-01
    -17.538  0.2951E-02  0.1326E-01
    -17.445  0.6953E-03  0.1332E-01
    -17.352  0.1078E-03  0.1333E-01
    -17.259  0.1100E-04  0.1333E-01
    -17.166  0.7365E-06  0.1333E-01
    -17.073  0.3237E-07  0.1333E-01
    -16.980  0.9329E-09  0.1333E-01
    -16.887  0.1761E-10  0.1333E-01
    -16.794  0.2174E-12  0.1333E-01
    -16.701  0.1761E-14  0.1333E-01
    -16.608  0.7966E-17  0.1333E-01
    -16.515  0.0000E+00  0.1333E-01
    -16.423  0.0000E+00  0.1333E-01
    -16.330  0.0000E+00  0.1333E-01
    -16.237  0.0000E+00  0.1333E-01
    -16.144  0.0000E+00  0.1333E-01
    -16.051  0.0000E+00  0.1333E-01
    -15.958  0.0000E+00  0.1333E-01
    -15.865  0.0000E+00  0.1333E-01
    -15.772  0.0000E+00  0.1333E-01
    -15.679  0.0000E+00  0.1333E-01
    -15.586  0.0000E+00  0.1333E-01
    -15.493  0.0000E+00  0.1333E-01
    -15.401  0.0000E+00  0.1333E-01
    -15.308  0.0000E+00  0.1333E-01
    -15.215  0.0000E+00  0.1333E-01
    -15.122  0.0000E+00  0.1333E-01
    -15.029  0.0000E+00  0.1333E-01
    -14.936  0.0000E+00  0.1333E-01
    -14.843  0.0000E+00  0.1333E-01
    -14.750  0.0000E+00  0.1333E-01
    -14.657  0.0000E+00  0.1333E-01
    -14.564  0.0000E+00  0.1333E-01
    -14.471  0.0000E+00  0.1333E-01
    -14.379  0.0000E+00  0.1333E-01
    -14.286  0.0000E+00  0.1333E-01
    -14.193  0.0000E+00  0.1333E-01
    -14.100  0.0000E+00  0.1333E-01
    -14.007  0.0000E+00  0.1333E-01
    -13.914  0.0000E+00  0.1333E-01
    -13.821  0.0000E+00  0.1333E-01
    -13.728  0.0000E+00  0.1333E-01
    -13.635  0.3186E-16  0.1333E-01
    -13.542  0.5730E-14  0.1333E-01
    -13.449  0.6413E-12  0.1333E-01
    -13.356  0.4696E-10  0.1333E-01
    -13.264  0.2250E-08  0.1333E-01
    -13.171  0.7063E-07  0.1333E-01
    -13.078  0.1454E-05  0.1333E-01
    -12.985  0.1964E-04  0.1334E-01
    -12.892  0.1743E-03  0.1335E-01
    -12.799  0.1018E-02  0.1345E-01
    -12.706  0.3912E-02  0.1381E-01
    -12.613  0.9905E-02  0.1473E-01
    -12.520  0.1653E-01  0.1627E-01
    -12.427  0.1820E-01  0.1796E-01
    -12.334  0.1321E-01  0.1918E-01
    -12.242  0.6320E-02  0.1977E-01
    -12.149  0.2012E-02  0.1996E-01
    -12.056  0.5833E-03  0.2001E-01
    -11.963  0.1052E-02  0.2011E-01
    -11.870  0.3855E-02  0.2047E-01
    -11.777  0.9805E-02  0.2138E-01
    -11.684  0.1646E-01  0.2291E-01
    -11.591  0.1822E-01  0.2460E-01
    -11.498  0.1330E-01  0.2584E-01
    -11.405  0.6410E-02  0.2643E-01
    -11.312  0.2101E-02  0.2663E-01
    -11.220  0.9134E-03  0.2671E-01
    -11.127  0.2322E-02  0.2693E-01
    -11.034  0.6905E-02  0.2757E-01
    -10.941  0.1386E-01  0.2886E-01
    -10.848  0.1836E-01  0.3056E-01
    -10.755  0.1603E-01  0.3205E-01
    -10.662  0.9233E-02  0.3291E-01
    -10.569  0.3505E-02  0.3324E-01
    -10.476  0.8765E-03  0.3332E-01
    -10.383  0.1443E-03  0.3333E-01
    -10.290  0.1562E-04  0.3333E-01
    -10.197  0.1114E-05  0.3333E-01
    -10.105  0.1456E-06  0.3333E-01
    -10.012  0.1861E-05  0.3333E-01
     -9.919  0.2420E-04  0.3334E-01
     -9.826  0.2071E-03  0.3336E-01
     -9.733  0.1165E-02  0.3346E-01
     -9.640  0.4317E-02  0.3386E-01
     -9.547  0.1054E-01  0.3484E-01
     -9.454  0.1695E-01  0.3642E-01
     -9.361  0.1799E-01  0.3809E-01
     -9.268  0.1259E-01  0.3926E-01
     -9.175  0.5805E-02  0.3980E-01
     -9.083  0.1765E-02  0.3996E-01
     -8.990  0.3534E-03  0.4000E-01
     -8.897  0.4931E-04  0.4000E-01
     -8.804  0.3816E-04  0.4000E-01
     -8.711  0.2747E-03  0.4003E-01
     -8.618  0.1452E-02  0.4016E-01
     -8.525  0.5057E-02  0.4063E-01
     -8.432  0.1161E-01  0.4171E-01
     -8.339  0.1756E-01  0.4334E-01
     -8.246  0.1752E-01  0.4497E-01
     -8.153  0.1152E-01  0.4604E-01
     -8.060  0.4998E-02  0.4651E-01
     -7.968  0.1428E-02  0.4664E-01
     -7.875  0.2690E-03  0.4666E-01
     -7.782  0.3879E-04  0.4667E-01
     -7.689  0.6343E-04  0.4667E-01
     -7.596  0.4386E-03  0.4671E-01
     -7.503  0.2083E-02  0.4691E-01
     -7.410  0.6515E-02  0.4751E-01
     -7.317  0.1343E-01  0.4876E-01
     -7.224  0.1826E-01  0.5046E-01
     -7.131  0.1637E-01  0.5198E-01
     -7.038  0.9673E-02  0.5288E-01
     -6.946  0.3769E-02  0.5323E-01
     -6.853  0.9674E-03  0.5332E-01
     -6.760  0.1634E-03  0.5333E-01
     -6.667  0.1816E-04  0.5333E-01
     -6.574  0.1326E-05  0.5333E-01
     -6.481  0.6355E-07  0.5333E-01
     -6.388  0.1997E-08  0.5333E-01
     -6.295  0.4110E-10  0.5333E-01
     -6.202  0.5536E-12  0.5333E-01
     -6.109  0.4875E-14  0.5333E-01
     -6.016  0.3186E-16  0.5333E-01
     -5.924  0.0000E+00  0.5333E-01
     -5.831  0.0000E+00  0.5333E-01
     -5.738  0.0000E+00  0.5333E-01
     -5.645  0.0000E+00  0.5333E-01
     -5.552  0.0000E+00  0.5333E-01
     -5.459  0.0000E+00  0.5333E-01
     -5.366  0.0000E+00  0.5333E-01
     -5.273  0.0000E+00  0.5333E-01
     -5.180  0.0000E+00  0.5333E-01
     -5.087  0.0000E+00  0.5333E-01
     -4.994  0.0000E+00  0.5333E-01
     -4.901  0.0000E+00  0.5333E-01
     -4.809  0.0000E+00  0.5333E-01
     -4.716  0.0000E+00  0.5333E-01
     -4.623  0.0000E+00  0.5333E-01
     -4.530  0.0000E+00  0.5333E-01
     -4.437  0.0000E+00  0.5333E-01
     -4.344  0.0000E+00  0.5333E-01
     -4.251  0.0000E+00  0.5333E-01
     -4.158  0.0000E+00  0.5333E-01
     -4.065  0.0000E+00  0.5333E-01
     -3.972  0.0000E+00  0.5333E-01
     -3.879  0.0000E+00  0.5333E-01
     -3.787  0.0000E+00  0.5333E-01
     -3.694  0.0000E+00  0.5333E-01
     -3.601  0.0000E+00  0.5333E-01
     -3.508  0.0000E+00  0.5333E-01
     -3.415  0.0000E+00  0.5333E-01
     -3.322  0.0000E+00  0.5333E-01
     -3.229  0.0000E+00  0.5333E-01
     -3.136  0.0000E+00  0.5333E-01
     -3.043  0.0000E+00  0.5333E-01
     -2.950  0.0000E+00  0.5333E-01
     -2.857  0.1334E-15  0.5333E-01
     -2.765  0.2038E-13  0.5333E-01
     -2.672  0.2043E-11  0.5333E-01
     -2.579  0.1339E-09  0.5333E-01
     -2.486  0.5748E-08  0.5333E-01
     -2.393  0.1616E-06  0.5333E-01
     -2.300  0.2981E-05  0.5333E-01
     -2.207  0.3610E-04  0.5334E-01
     -2.114  0.2873E-03  0.5336E-01
     -2.021  0.1504E-02  0.5350E-01
     -1.928  0.5186E-02  0.5399E-01
     -1.835  0.1178E-01  0.5508E-01
     -1.742  0.1764E-01  0.5672E-01
     -1.650  0.1742E-01  0.5834E-01
     -1.557  0.1135E-01  0.5939E-01
     -1.464  0.4873E-02  0.5985E-01
     -1.371  0.1403E-02  0.5998E-01
     -1.278  0.4728E-03  0.6002E-01
     -1.185  0.1247E-02  0.6014E-01
     -1.092  0.4557E-02  0.6056E-01
     -0.999  0.1156E-01  0.6163E-01
     -0.906  0.2055E-01  0.6354E-01
     -0.813  0.2718E-01  0.6607E-01
     -0.720  0.2850E-01  0.6871E-01
     -0.628  0.2416E-01  0.7096E-01
     -0.535  0.1626E-01  0.7247E-01
     -0.442  0.1016E-01  0.7341E-01
     -0.349  0.1051E-01  0.7439E-01
     -0.256  0.1565E-01  0.7584E-01
     -0.163  0.1854E-01  0.7757E-01
     -0.070  0.1485E-01  0.7895E-01
      0.023  0.7861E-02  0.7968E-01
      0.116  0.2744E-02  0.7993E-01
      0.209  0.6311E-03  0.7999E-01
      0.302  0.9551E-04  0.8000E-01
      0.394  0.9504E-05  0.8000E-01
      0.487  0.6212E-06  0.8000E-01
      0.580  0.2664E-07  0.8000E-01
      0.673  0.7491E-09  0.8000E-01
      0.766  0.1379E-10  0.8000E-01
      0.859  0.1662E-12  0.8000E-01
      0.952  0.1306E-14  0.8000E-01
      1.045  0.7966E-17  0.8000E-01
      1.138  0.0000E+00  0.8000E-01
      1.231  0.0000E+00  0.8000E-01
      1.324  0.0000E+00  0.8000E-01
      1.417  0.0000E+00  0.8000E-01
      1.509  0.0000E+00  0.8000E-01
      1.602  0.0000E+00  0.8000E-01
      1.695  0.0000E+00  0.8000E-01
      1.788  0.0000E+00  0.8000E-01
