    6    6  300    1
  0.4500000E+04  0.3000000E-08  0.3000000E-08  0.3000000E-08  0.0000000E+00
  1.000000000000000E-004
  CAR 
 unknown system                          
     16      4     12
 
  0.2500000E+00  0.2500000E+00  0.2500000E+00  0.2500000E+00
    1      -24.085393   1.000000
    2      -17.859690   1.000000
    3      -12.498878   1.000000
    4      -11.661354   1.000000
    5      -10.878067   1.000000
    6       -9.440963   1.000000
    7       -8.339760   1.000000
    8       -7.248702   1.000000
    9       -1.745292   0.000000
   10       -0.894882   0.000000
   11       -0.690347   0.000000
   12       -0.211851   0.000000
 
 -0.2500000E+00  0.2500000E+00  0.2500000E+00  0.2500000E+00
    1      -24.085393   1.000000
    2      -17.859690   1.000000
    3      -12.498881   1.000000
    4      -11.661356   1.000000
    5      -10.878062   1.000000
    6       -9.440962   1.000000
    7       -8.339759   1.000000
    8       -7.248709   1.000000
    9       -1.745289   0.000000
   10       -0.894884   0.000000
   11       -0.690351   0.000000
   12       -0.211854   0.000000
 
  0.2500000E+00 -0.2500000E+00  0.2500000E+00  0.2500000E+00
    1      -24.085393   1.000000
    2      -17.859690   1.000000
    3      -12.498878   1.000000
    4      -11.661359   1.000000
    5      -10.878056   1.000000
    6       -9.440964   1.000000
    7       -8.339766   1.000000
    8       -7.248711   1.000000
    9       -1.745296   0.000000
   10       -0.894890   0.000000
   11       -0.690355   0.000000
   12       -0.211846   0.000000
 
 -0.2500000E+00 -0.2500000E+00  0.2500000E+00  0.2500000E+00
    1      -24.085393   1.000000
    2      -17.859689   1.000000
    3      -12.498881   1.000000
    4      -11.661362   1.000000
    5      -10.878057   1.000000
    6       -9.440959   1.000000
    7       -8.339760   1.000000
    8       -7.248712   1.000000
    9       -1.745297   0.000000
   10       -0.894892   0.000000
   11       -0.690354   0.000000
   12       -0.211847   0.000000
