       N       E                     dE             d eps       ncg     rms          rms(c)
DAV:   1     0.108086591094E+03    0.10809E+03   -0.21259E+03   160   0.366E+02
DAV:   2     0.255254980979E+01   -0.10553E+03   -0.10239E+03   192   0.982E+01
DAV:   3    -0.332134550242E+02   -0.35766E+02   -0.35546E+02   128   0.893E+01
DAV:   4    -0.368156039502E+02   -0.36021E+01   -0.35618E+01   124   0.316E+01
DAV:   5    -0.369283835229E+02   -0.11278E+00   -0.11122E+00   156   0.563E+00    0.103E+01
DAV:   6    -0.346551293156E+02    0.22733E+01   -0.36330E+00   108   0.128E+01    0.560E+00
DAV:   7    -0.340442677926E+02    0.61086E+00   -0.16126E+00   128   0.855E+00    0.198E+00
DAV:   8    -0.339907286427E+02    0.53539E-01   -0.10431E-01   128   0.293E+00    0.756E-01
DAV:   9    -0.339769169078E+02    0.13812E-01   -0.20737E-02   128   0.132E+00    0.227E-01
DAV:  10    -0.339760799329E+02    0.83697E-03   -0.50504E-03   128   0.621E-01    0.123E-01
DAV:  11    -0.339769172923E+02   -0.83736E-03   -0.88039E-04   128   0.252E-01    0.842E-02
DAV:  12    -0.339809103265E+02   -0.39930E-02   -0.24620E-03   128   0.319E-01    0.393E-02
DAV:  13    -0.339856575167E+02   -0.47472E-02   -0.11430E-03   160   0.186E-01    0.294E-02
DAV:  14    -0.339892532392E+02   -0.35957E-02   -0.36377E-04   128   0.108E-01    0.156E-02
DAV:  15    -0.339917719689E+02   -0.25187E-02   -0.21959E-04   112   0.712E-02    0.930E-03
DAV:  16    -0.339934937992E+02   -0.17218E-02   -0.16019E-04   124   0.590E-02    0.558E-03
DAV:  17    -0.339944622469E+02   -0.96845E-03   -0.51706E-05    92   0.390E-02    0.292E-03
DAV:  18    -0.339947720846E+02   -0.30984E-03   -0.25789E-05    96   0.239E-02    0.179E-03
DAV:  19    -0.339949308731E+02   -0.15879E-03   -0.11560E-05    80   0.156E-02    0.109E-03
DAV:  20    -0.339950086868E+02   -0.77814E-04   -0.39237E-06    96   0.108E-02
   1 F= -.33995009E+02 E0= -.33995009E+02  d E =-.339950E+02
       N       E                     dE             d eps       ncg     rms          rms(c)
DAV:   1    -0.339890802737E+02    0.58506E-02   -0.12346E-01    96   0.334E+00    0.109E-01
DAV:   2    -0.339890208435E+02    0.59430E-04   -0.18819E-03   128   0.343E-01    0.686E-02
DAV:   3    -0.339891124333E+02   -0.91590E-04   -0.92050E-05    96   0.992E-02    0.213E-02
DAV:   4    -0.339891454678E+02   -0.33034E-04   -0.23803E-05    96   0.474E-02    0.548E-03
DAV:   5    -0.339891494296E+02   -0.39619E-05   -0.52625E-06    96   0.206E-02    0.320E-03
DAV:   6    -0.339891541621E+02   -0.47325E-05   -0.13803E-06    96   0.105E-02
   2 F= -.33989154E+02 E0= -.33989154E+02  d E =0.585452E-02
       N       E                     dE             d eps       ncg     rms          rms(c)
DAV:   1    -0.339788142505E+02    0.10335E-01   -0.46347E-01    96   0.646E+00    0.209E-01
DAV:   2    -0.339787145346E+02    0.99716E-04   -0.68732E-03   128   0.657E-01    0.133E-01
DAV:   3    -0.339789028395E+02   -0.18830E-03   -0.38381E-04   128   0.189E-01    0.400E-02
DAV:   4    -0.339789829354E+02   -0.80096E-04   -0.57012E-05    96   0.797E-02    0.109E-02
DAV:   5    -0.339789912277E+02   -0.82923E-05   -0.12280E-05    96   0.326E-02    0.606E-03
DAV:   6    -0.339790004641E+02   -0.92364E-05   -0.27859E-06    96   0.163E-02
   3 F= -.33979000E+02 E0= -.33979000E+02  d E =0.101537E-01
       N       E                     dE             d eps       ncg     rms          rms(c)
DAV:   1    -0.339671230373E+02    0.11868E-01   -0.93421E-01    96   0.916E+00    0.293E-01
DAV:   2    -0.339671051421E+02    0.17895E-04   -0.13642E-02   128   0.924E-01    0.188E-01
DAV:   3    -0.339673933866E+02   -0.28824E-03   -0.70432E-04   128   0.261E-01    0.594E-02
DAV:   4    -0.339675464042E+02   -0.15302E-03   -0.11102E-04    96   0.111E-01    0.153E-02
DAV:   5    -0.339675627855E+02   -0.16381E-04   -0.25288E-05    96   0.466E-02    0.848E-03
DAV:   6    -0.339675831721E+02   -0.20387E-04   -0.55898E-06    96   0.229E-02
   4 F= -.33967583E+02 E0= -.33967583E+02  d E =0.114173E-01
       N       E                     dE             d eps       ncg     rms          rms(c)
DAV:   1    -0.339573348179E+02    0.10228E-01   -0.14231E+00    96   0.113E+01    0.356E-01
DAV:   2    -0.339574840902E+02   -0.14927E-03   -0.20764E-02   128   0.114E+00    0.228E-01
DAV:   3    -0.339578801214E+02   -0.39603E-03   -0.92751E-04   128   0.304E-01    0.819E-02
DAV:   4    -0.339581867186E+02   -0.30660E-03   -0.15666E-04    96   0.135E-01    0.180E-02
DAV:   5    -0.339582068568E+02   -0.20138E-04   -0.36439E-05    96   0.556E-02    0.998E-03
DAV:   6    -0.339582311611E+02   -0.24304E-04   -0.72029E-06    96   0.259E-02
   5 F= -.33958231E+02 E0= -.33958231E+02  d E =0.935201E-02
       N       E                     dE             d eps       ncg     rms          rms(c)
DAV:   1    -0.339519030655E+02    0.63038E-02   -0.18237E+00    96   0.128E+01    0.397E-01
DAV:   2    -0.339522367131E+02   -0.33365E-03   -0.26860E-02   128   0.129E+00    0.254E-01
DAV:   3    -0.339526494052E+02   -0.41269E-03   -0.10580E-03   128   0.332E-01    0.102E-01
DAV:   4    -0.339531640088E+02   -0.51460E-03   -0.19948E-04    96   0.155E-01    0.202E-02
DAV:   5    -0.339531845256E+02   -0.20517E-04   -0.43241E-05    96   0.609E-02    0.109E-02
DAV:   6    -0.339532085446E+02   -0.24019E-04   -0.80310E-06    96   0.274E-02
   6 F= -.33953209E+02 E0= -.33953209E+02  d E =0.502262E-02
       N       E                     dE             d eps       ncg     rms          rms(c)
DAV:   1    -0.339515259599E+02    0.16586E-02   -0.20238E+00    96   0.134E+01    0.412E-01
DAV:   2    -0.339520486294E+02   -0.52267E-03   -0.30496E-02   128   0.137E+00    0.262E-01
DAV:   3    -0.339523798080E+02   -0.33118E-03   -0.10831E-03   128   0.348E-01    0.115E-01
DAV:   4    -0.339530566346E+02   -0.67683E-03   -0.23491E-04    96   0.169E-01    0.217E-02
DAV:   5    -0.339530776881E+02   -0.21054E-04   -0.48132E-05    96   0.658E-02    0.115E-02
DAV:   6    -0.339530983238E+02   -0.20636E-04   -0.91646E-06    96   0.286E-02
   7 F= -.33953098E+02 E0= -.33953098E+02  d E =0.110221E-03
       N       E                     dE             d eps       ncg     rms          rms(c)
DAV:   1    -0.339531210017E+02   -0.43314E-04   -0.14369E-04   128   0.107E-01    0.513E-03
DAV:   2    -0.339531295542E+02   -0.85525E-05   -0.22223E-06    48   0.130E-02    0.309E-03
DAV:   3    -0.339531438207E+02   -0.14266E-04   -0.16316E-06    96   0.933E-03    0.110E-03
DAV:   4    -0.339531509477E+02   -0.71271E-05   -0.42860E-07    64   0.429E-03    0.706E-04
DAV:   5    -0.339531627302E+02   -0.11782E-04   -0.64989E-07    96   0.327E-03    0.382E-04
DAV:   6    -0.339531700665E+02   -0.73363E-05   -0.39292E-07    96   0.241E-03
   8 F= -.33953170E+02 E0= -.33953170E+02  d E =-.717427E-04
       N       E                     dE             d eps       ncg     rms          rms(c)
DAV:   1    -0.339531826611E+02   -0.19931E-04   -0.41541E-04   128   0.184E-01    0.808E-03
DAV:   2    -0.339531825995E+02    0.61581E-07   -0.53501E-06    96   0.202E-02    0.475E-03
DAV:   3    -0.339531838442E+02   -0.12446E-05   -0.23597E-06    96   0.133E-02    0.137E-03
DAV:   4    -0.339531844763E+02   -0.63217E-06   -0.36979E-07    48   0.544E-03    0.724E-04
DAV:   5    -0.339531851975E+02   -0.72113E-06   -0.80373E-08    96   0.228E-03    0.190E-04
DAV:   6    -0.339531855895E+02   -0.39204E-06   -0.37228E-08    48   0.103E-03
   9 F= -.33953186E+02 E0= -.33953186E+02  d E =-.155230E-04
       N       E                     dE             d eps       ncg     rms          rms(c)
DAV:   1    -0.339531698606E+02    0.15337E-04   -0.58765E-04    96   0.226E-01    0.854E-03
DAV:   2    -0.339531690060E+02    0.85467E-06   -0.63201E-06    96   0.219E-02    0.523E-03
DAV:   3    -0.339531697352E+02   -0.72927E-06   -0.23449E-06    48   0.129E-02    0.142E-03
DAV:   4    -0.339531699092E+02   -0.17400E-06   -0.38562E-07    48   0.533E-03    0.787E-04
DAV:   5    -0.339531700826E+02   -0.17341E-06   -0.83653E-08    80   0.230E-03    0.157E-04
DAV:   6    -0.339531701832E+02   -0.10053E-06   -0.37663E-08    48   0.102E-03
  10 F= -.33953170E+02 E0= -.33953170E+02  d E =0.154063E-04
       N       E                     dE             d eps       ncg     rms          rms(c)
DAV:   1    -0.339531483233E+02    0.21759E-04   -0.82426E-04    96   0.276E-01    0.907E-03
DAV:   2    -0.339531471952E+02    0.11280E-05   -0.81397E-06    96   0.261E-02    0.550E-03
DAV:   3    -0.339531483074E+02   -0.11121E-05   -0.19517E-06    48   0.120E-02    0.157E-03
DAV:   4    -0.339531484951E+02   -0.18774E-06   -0.40682E-07    48   0.532E-03    0.747E-04
DAV:   5    -0.339531485565E+02   -0.61372E-07   -0.11954E-07    48   0.273E-03    0.225E-04
DAV:   6    -0.339531485980E+02   -0.41578E-07   -0.50995E-08    48   0.129E-03
  11 F= -.33953149E+02 E0= -.33953149E+02  d E =0.215851E-04
       N       E                     dE             d eps       ncg     rms          rms(c)
DAV:   1    -0.339531244561E+02    0.24100E-04   -0.13461E-03    96   0.356E-01    0.116E-02
DAV:   2    -0.339531228543E+02    0.16018E-05   -0.17114E-05    96   0.386E-02    0.671E-03
DAV:   3    -0.339531242961E+02   -0.14418E-05   -0.31744E-06    48   0.167E-02    0.267E-03
DAV:   4    -0.339531248554E+02   -0.55925E-06   -0.70458E-07    48   0.731E-03    0.103E-03
DAV:   5    -0.339531249157E+02   -0.60274E-07   -0.17893E-07    48   0.372E-03    0.306E-04
DAV:   6    -0.339531249410E+02   -0.25371E-07   -0.76760E-08    48   0.177E-03
  12 F= -.33953125E+02 E0= -.33953125E+02  d E =0.236570E-04
       N       E                     dE             d eps       ncg     rms          rms(c)
DAV:   1    -0.339530906530E+02    0.34263E-04   -0.19244E-03    96   0.426E-01    0.140E-02
DAV:   2    -0.339530884722E+02    0.21808E-05   -0.25902E-05    96   0.470E-02    0.796E-03
DAV:   3    -0.339530903052E+02   -0.18330E-05   -0.45077E-06    48   0.201E-02    0.336E-03
DAV:   4    -0.339530911660E+02   -0.86076E-06   -0.10251E-06    48   0.888E-03    0.121E-03
DAV:   5    -0.339530912473E+02   -0.81312E-07   -0.24433E-07    48   0.442E-03    0.371E-04
DAV:   6    -0.339530912853E+02   -0.38023E-07   -0.95815E-08    48   0.214E-03
  13 F= -.33953091E+02 E0= -.33953091E+02  d E =0.336557E-04
       N       E                     dE             d eps       ncg     rms          rms(c)
DAV:   1    -0.339530480527E+02    0.43195E-04   -0.26466E-03    96   0.498E-01    0.158E-02
DAV:   2    -0.339530452249E+02    0.28279E-05   -0.31274E-05    96   0.507E-02    0.922E-03
DAV:   3    -0.339530478753E+02   -0.26504E-05   -0.50629E-06    48   0.208E-02    0.376E-03
DAV:   4    -0.339530490085E+02   -0.11332E-05   -0.10972E-06    48   0.898E-03    0.111E-03
DAV:   5    -0.339530490788E+02   -0.70337E-07   -0.30038E-07    48   0.447E-03    0.409E-04
DAV:   6    -0.339530491256E+02   -0.46803E-07   -0.11078E-07    48   0.232E-03
  14 F= -.33953049E+02 E0= -.33953049E+02  d E =0.421597E-04
       N       E                     dE             d eps       ncg     rms          rms(c)
DAV:   1    -0.339530152903E+02    0.33789E-04   -0.35152E-03    96   0.568E-01    0.180E-02
DAV:   2    -0.339530116274E+02    0.36628E-05   -0.35320E-05    96   0.531E-02    0.111E-02
DAV:   3    -0.339530151518E+02   -0.35243E-05   -0.58364E-06    48   0.228E-02    0.361E-03
DAV:   4    -0.339530160487E+02   -0.89695E-06   -0.14913E-06    48   0.104E-02    0.114E-03
DAV:   5    -0.339530160703E+02   -0.21617E-07   -0.37873E-07    48   0.516E-03    0.477E-04
DAV:   6    -0.339530161229E+02   -0.52580E-07   -0.13263E-07    48   0.257E-03
  15 F= -.33953016E+02 E0= -.33953016E+02  d E =0.330027E-04
       N       E                     dE             d eps       ncg     rms          rms(c)
DAV:   1    -0.339529861950E+02    0.29875E-04   -0.50879E-03    96   0.679E-01    0.219E-02
DAV:   2    -0.339529813567E+02    0.48383E-05   -0.52715E-05    96   0.654E-02    0.137E-02
DAV:   3    -0.339529857337E+02   -0.43770E-05   -0.97988E-06    64   0.314E-02    0.400E-03
DAV:   4    -0.339529865932E+02   -0.85947E-06   -0.24419E-06    48   0.138E-02    0.159E-03
DAV:   5    -0.339529865908E+02    0.24062E-08   -0.53474E-07    48   0.705E-03    0.618E-04
DAV:   6    -0.339529866628E+02   -0.72020E-07   -0.19896E-07    48   0.346E-03
  16 F= -.33952987E+02 E0= -.33952987E+02  d E =0.294601E-04
       N       E                     dE             d eps       ncg     rms          rms(c)
DAV:   1    -0.339529625065E+02    0.24084E-04   -0.68502E-03    96   0.800E-01    0.246E-02
DAV:   2    -0.339529577169E+02    0.47896E-05   -0.74465E-05    96   0.773E-02    0.151E-02
DAV:   3    -0.339529631864E+02   -0.54695E-05   -0.10369E-05    80   0.311E-02    0.559E-03
DAV:   4    -0.339529651803E+02   -0.19939E-05   -0.26754E-06    48   0.140E-02    0.134E-03
DAV:   5    -0.339529652455E+02   -0.65216E-07   -0.68023E-07    48   0.696E-03    0.629E-04
DAV:   6    -0.339529653499E+02   -0.10439E-06   -0.22856E-07    48   0.357E-03
  17 F= -.33952965E+02 E0= -.33952965E+02  d E =0.213129E-04
       N       E                     dE             d eps       ncg     rms          rms(c)
DAV:   1    -0.339529477243E+02    0.17521E-04   -0.94777E-03    96   0.946E-01    0.298E-02
DAV:   2    -0.339529423622E+02    0.53620E-05   -0.11759E-04    96   0.965E-02    0.173E-02
DAV:   3    -0.339529487456E+02   -0.63833E-05   -0.16122E-05    64   0.378E-02    0.735E-03
DAV:   4    -0.339529520876E+02   -0.33420E-05   -0.36941E-06    48   0.167E-02    0.168E-03
DAV:   5    -0.339529523311E+02   -0.24343E-06   -0.96400E-07    48   0.788E-03    0.724E-04
DAV:   6    -0.339529525327E+02   -0.20167E-06   -0.31224E-07    48   0.414E-03
  18 F= -.33952953E+02 E0= -.33952953E+02  d E =0.128171E-04
       N       E                     dE             d eps       ncg     rms          rms(c)
DAV:   1    -0.339529553063E+02   -0.29752E-05   -0.16539E-05    48   0.387E-02    0.160E-03
DAV:   2    -0.339529554868E+02   -0.18058E-06   -0.78163E-07    48   0.899E-03    0.946E-04
DAV:   3    -0.339529556809E+02   -0.19402E-06   -0.10337E-07    48   0.319E-03    0.401E-04
DAV:   4    -0.339529558578E+02   -0.17692E-06   -0.45304E-08    48   0.151E-03    0.177E-04
DAV:   5    -0.339529560269E+02   -0.16910E-06   -0.23428E-08    48   0.735E-04    0.572E-05
DAV:   6    -0.339529561507E+02   -0.12385E-06   -0.18899E-08    48   0.382E-04
  19 F= -.33952956E+02 E0= -.33952956E+02  d E =-.361800E-05
       N       E                     dE             d eps       ncg     rms          rms(c)
DAV:   1    -0.339529594154E+02   -0.33885E-05   -0.50062E-05    80   0.673E-02    0.278E-03
DAV:   2    -0.339529595721E+02   -0.15668E-06   -0.22053E-06    48   0.154E-02    0.160E-03
DAV:   3    -0.339529596566E+02   -0.84454E-07   -0.26639E-07    48   0.534E-03    0.676E-04
DAV:   4    -0.339529597330E+02   -0.76415E-07   -0.96034E-08    48   0.254E-03    0.286E-04
DAV:   5    -0.339529597848E+02   -0.51788E-07   -0.31952E-08    48   0.114E-03    0.938E-05
DAV:   6    -0.339529598242E+02   -0.39419E-07   -0.22704E-08    48   0.499E-04
  20 F= -.33952960E+02 E0= -.33952960E+02  d E =-.367344E-05
       N       E                     dE             d eps       ncg     rms          rms(c)
DAV:   1    -0.339529615390E+02   -0.17543E-05   -0.68617E-05    48   0.793E-02    0.302E-03
DAV:   2    -0.339529616798E+02   -0.14079E-06   -0.29788E-06    48   0.182E-02    0.177E-03
DAV:   3    -0.339529617164E+02   -0.36615E-07   -0.36158E-07    48   0.619E-03    0.755E-04
DAV:   4    -0.339529617499E+02   -0.33499E-07   -0.12197E-07    48   0.288E-03    0.327E-04
DAV:   5    -0.339529617650E+02   -0.15066E-07   -0.40469E-08    48   0.129E-03    0.107E-04
DAV:   6    -0.339529617758E+02   -0.10774E-07   -0.27016E-08    48   0.580E-04
  21 F= -.33952962E+02 E0= -.33952962E+02  d E =-.195159E-05
       N       E                     dE             d eps       ncg     rms          rms(c)
DAV:   1    -0.339529626240E+02   -0.85896E-06   -0.58279E-05    48   0.731E-02    0.224E-03
DAV:   2    -0.339529627572E+02   -0.13325E-06   -0.24732E-06    48   0.169E-02    0.140E-03
DAV:   3    -0.339529628014E+02   -0.44233E-07   -0.29256E-07    48   0.537E-03    0.651E-04
DAV:   4    -0.339529628216E+02   -0.20125E-07   -0.92378E-08    48   0.241E-03    0.282E-04
DAV:   5    -0.339529628281E+02   -0.65702E-08   -0.38576E-08    48   0.111E-03    0.978E-05
DAV:   6    -0.339529628342E+02   -0.60761E-08   -0.26997E-08    48   0.549E-04
  22 F= -.33952963E+02 E0= -.33952963E+02  d E =-.105844E-05
       N       E                     dE             d eps       ncg     rms          rms(c)
DAV:   1    -0.339529644924E+02   -0.16642E-05   -0.54084E-05    48   0.691E-02    0.182E-03
DAV:   2    -0.339529646509E+02   -0.15847E-06   -0.22819E-06    48   0.164E-02    0.109E-03
DAV:   3    -0.339529647093E+02   -0.58437E-07   -0.24990E-07    48   0.476E-03    0.558E-04
DAV:   4    -0.339529647316E+02   -0.22342E-07   -0.73397E-08    48   0.210E-03    0.176E-04
DAV:   5    -0.339529647364E+02   -0.48099E-08   -0.35999E-08    48   0.991E-04    0.940E-05
DAV:   6    -0.339529647413E+02   -0.48724E-08   -0.25843E-08    48   0.541E-04
  23 F= -.33952965E+02 E0= -.33952965E+02  d E =-.190710E-05
       N       E                     dE             d eps       ncg     rms          rms(c)
DAV:   1    -0.339529673738E+02   -0.26373E-05   -0.74798E-05    48   0.818E-02    0.217E-03
DAV:   2    -0.339529675870E+02   -0.21326E-06   -0.32321E-06    48   0.192E-02    0.135E-03
DAV:   3    -0.339529676478E+02   -0.60797E-07   -0.31357E-07    48   0.553E-03    0.676E-04
DAV:   4    -0.339529676734E+02   -0.25542E-07   -0.92882E-08    48   0.255E-03    0.242E-04
DAV:   5    -0.339529676796E+02   -0.62485E-08   -0.39353E-08    48   0.119E-03    0.133E-04
DAV:   6    -0.339529676843E+02   -0.46832E-08   -0.25578E-08    48   0.622E-04
  24 F= -.33952968E+02 E0= -.33952968E+02  d E =-.294298E-05
       N       E                     dE             d eps       ncg     rms          rms(c)
DAV:   1    -0.339529700507E+02   -0.23711E-05   -0.13191E-04    48   0.109E-01    0.310E-03
DAV:   2    -0.339529703949E+02   -0.34420E-06   -0.57928E-06    48   0.253E-02    0.199E-03
DAV:   3    -0.339529704576E+02   -0.62704E-07   -0.53626E-07    48   0.749E-03    0.100E-03
DAV:   4    -0.339529704929E+02   -0.35367E-07   -0.15922E-07    48   0.351E-03    0.416E-04
DAV:   5    -0.339529705042E+02   -0.11295E-07   -0.52101E-08    48   0.166E-03    0.191E-04
DAV:   6    -0.339529705091E+02   -0.48212E-08   -0.27851E-08    48   0.765E-04
  25 F= -.33952971E+02 E0= -.33952971E+02  d E =-.282476E-05
       N       E                     dE             d eps       ncg     rms          rms(c)
DAV:   1    -0.339529720317E+02   -0.15274E-05   -0.17567E-04    96   0.124E-01    0.370E-03
DAV:   2    -0.339529719178E+02    0.11390E-06   -0.23830E-06    48   0.140E-02    0.229E-03
DAV:   3    -0.339529719692E+02   -0.51458E-07   -0.45548E-07    48   0.634E-03    0.748E-04
DAV:   4    -0.339529720038E+02   -0.34576E-07   -0.98191E-08    48   0.258E-03    0.367E-04
DAV:   5    -0.339529720215E+02   -0.17736E-07   -0.31422E-08    48   0.124E-03    0.730E-05
DAV:   6    -0.339529720285E+02   -0.69059E-08   -0.22470E-08    48   0.539E-04
  26 F= -.33952972E+02 E0= -.33952972E+02  d E =-.151940E-05
       N       E                     dE             d eps       ncg     rms          rms(c)
DAV:   1    -0.339529742811E+02   -0.22596E-05   -0.17058E-04    96   0.121E-01    0.321E-03
DAV:   2    -0.339529742111E+02    0.69968E-07   -0.20000E-06    48   0.123E-02    0.201E-03
DAV:   3    -0.339529743146E+02   -0.10348E-06   -0.30242E-07    48   0.497E-03    0.511E-04
DAV:   4    -0.339529743412E+02   -0.26584E-07   -0.68887E-08    48   0.207E-03    0.210E-04
DAV:   5    -0.339529743535E+02   -0.12322E-07   -0.29587E-08    48   0.928E-04    0.776E-05
DAV:   6    -0.339529743634E+02   -0.98670E-08   -0.22335E-08    48   0.496E-04
  27 F= -.33952974E+02 E0= -.33952974E+02  d E =-.233493E-05
       N       E                     dE             d eps       ncg     rms          rms(c)
DAV:   1    -0.339529788504E+02   -0.44969E-05   -0.22471E-04    96   0.140E-01    0.391E-03
DAV:   2    -0.339529787063E+02    0.14409E-06   -0.27264E-06    48   0.149E-02    0.247E-03
DAV:   3    -0.339529788462E+02   -0.13988E-06   -0.54901E-07    48   0.724E-03    0.757E-04
DAV:   4    -0.339529788802E+02   -0.34029E-07   -0.12856E-07    48   0.316E-03    0.396E-04
DAV:   5    -0.339529788918E+02   -0.11571E-07   -0.38913E-08    48   0.135E-03    0.117E-04
DAV:   6    -0.339529788992E+02   -0.73753E-08   -0.25051E-08    48   0.622E-04
  28 F= -.33952979E+02 E0= -.33952979E+02  d E =-.453580E-05
