 vasp.5.4.1 24Jun15 (build Jan 13 2020 12:58:22) complex                        
  
 executed on           IFC91_ompi date 2020.02.03  02:42:24
 running on   15 total cores
 each image running on    1 cores
 distrk:  each k-point on    1 cores,    1 groups
 distr:  one band on NCORES_PER_BAND=   1 cores,    1 groups


--------------------------------------------------------------------------------------------------------


 INCAR:
 POTCAR:    PAW_PBE H 15Jun2001                   
 POTCAR:    PAW_PBE C 08Apr2002                   
 POTCAR:    PAW_PBE N 08Apr2002                   
 POTCAR:    PAW_PBE H 15Jun2001                   
   VRHFIN =H: ultrasoft test                                                    
   LEXCH  = PE                                                                  
   EATOM  =    12.4884 eV,    0.9179 Ry                                         
                                                                                
   TITEL  = PAW_PBE H 15Jun2001                                                 
   LULTRA =        F    use ultrasoft PP ?                                      
   IUNSCR =        0    unscreen: 0-lin 1-nonlin 2-no                           
   RPACOR =    0.000    partial core radius                                     
   POMASS =    1.000; ZVAL   =    1.000    mass and valenz                      
   RCORE  =    1.100    outmost cutoff radius                                   
   RWIGS  =    0.700; RWIGS  =    0.370    wigner-seitz radius (au A)           
   ENMAX  =  250.000; ENMIN  =  200.000 eV                                      
   RCLOC  =    0.701    cutoff for local pot                                    
   LCOR   =        T    correct aug charges                                     
   LPAW   =        T    paw PP                                                  
   EAUG   =  400.000                                                            
   RMAX   =    1.123    core radius for proj-oper                               
   RAUG   =    1.200    factor for augmentation sphere                          
   RDEP   =    1.112    radius for radial grids                                 
   RDEPT  =    0.926    core radius for aug-charge                              
                                                                                
   Atomic configuration                                                         
    2 entries                                                                   
     n  l   j            E        occ.                                          
     1  0  0.50        -6.4927   1.0000                                         
     2  1  0.50        -3.4015   0.0000                                         
   Description                                                                  
     l       E           TYP  RCUT    TYP  RCUT                                 
     0     -6.4927494     23  1.100                                             
     0      6.8029130     23  1.100                                             
     1     -4.0817478     23  1.100                                             
  local pseudopotential read in
  atomic valenz-charges read in
  non local Contribution for L=           0  read in
    real space projection operators read in
  non local Contribution for L=           0  read in
    real space projection operators read in
  non local Contribution for L=           1  read in
    real space projection operators read in
    PAW grid and wavefunctions read in
 
   number of l-projection  operators is LMAX  =           3
   number of lm-projection operators is LMMAX =           5
 
 POTCAR:    PAW_PBE C 08Apr2002                   
   VRHFIN =C: s2p2                                                              
   LEXCH  = PE                                                                  
   EATOM  =   147.1560 eV,   10.8157 Ry                                         
                                                                                
   TITEL  = PAW_PBE C 08Apr2002                                                 
   LULTRA =        F    use ultrasoft PP ?                                      
   IUNSCR =        1    unscreen: 0-lin 1-nonlin 2-no                           
   RPACOR =    1.200    partial core radius                                     
   POMASS =   12.011; ZVAL   =    4.000    mass and valenz                      
   RCORE  =    1.500    outmost cutoff radius                                   
   RWIGS  =    1.630; RWIGS  =    0.863    wigner-seitz radius (au A)           
   ENMAX  =  400.000; ENMIN  =  300.000 eV                                      
   ICORE  =        2    local potential                                         
   LCOR   =        T    correct aug charges                                     
   LPAW   =        T    paw PP                                                  
   EAUG   =  644.873                                                            
   DEXC   =    0.000                                                            
   RMAX   =    1.529    core radius for proj-oper                               
   RAUG   =    1.300    factor for augmentation sphere                          
   RDEP   =    1.501    radius for radial grids                                 
   RDEPT  =    1.300    core radius for aug-charge                              
                                                                                
   Atomic configuration                                                         
    4 entries                                                                   
     n  l   j            E        occ.                                          
     1  0  0.50      -273.3789   2.0000                                         
     2  0  0.50       -13.7508   2.0000                                         
     2  1  0.50        -5.2854   2.0000                                         
     3  2  1.50        -5.4423   0.0000                                         
   Description                                                                  
     l       E           TYP  RCUT    TYP  RCUT                                 
     0    -13.7508458     23  1.200                                             
     0     -8.2022199     23  1.200                                             
     1     -5.2854383     23  1.500                                             
     1     34.0145650     23  1.500                                             
     2     -5.4423304      7  1.500                                             
  local pseudopotential read in
  partial core-charges read in
  partial kinetic energy density read in
  atomic valenz-charges read in
  non local Contribution for L=           0  read in
    real space projection operators read in
  non local Contribution for L=           0  read in
    real space projection operators read in
  non local Contribution for L=           1  read in
    real space projection operators read in
  non local Contribution for L=           1  read in
    real space projection operators read in
    PAW grid and wavefunctions read in
 
   number of l-projection  operators is LMAX  =           4
   number of lm-projection operators is LMMAX =           8
 
 POTCAR:    PAW_PBE N 08Apr2002                   
   VRHFIN =N: s2p3                                                              
   LEXCH  = PE                                                                  
   EATOM  =   264.5486 eV,   19.4438 Ry                                         
                                                                                
   TITEL  = PAW_PBE N 08Apr2002                                                 
   LULTRA =        F    use ultrasoft PP ?                                      
   IUNSCR =        1    unscreen: 0-lin 1-nonlin 2-no                           
   RPACOR =    1.200    partial core radius                                     
   POMASS =   14.001; ZVAL   =    5.000    mass and valenz                      
   RCORE  =    1.500    outmost cutoff radius                                   
   RWIGS  =    1.400; RWIGS  =    0.741    wigner-seitz radius (au A)           
   ENMAX  =  400.000; ENMIN  =  300.000 eV                                      
   ICORE  =        2    local potential                                         
   LCOR   =        T    correct aug charges                                     
   LPAW   =        T    paw PP                                                  
   EAUG   =  627.112                                                            
   DEXC   =    0.000                                                            
   RMAX   =    1.529    core radius for proj-oper                               
   RAUG   =    1.300    factor for augmentation sphere                          
   RDEP   =    1.514    radius for radial grids                                 
   RDEPT  =    1.338    core radius for aug-charge                              
                                                                                
   Atomic configuration                                                         
    4 entries                                                                   
     n  l   j            E        occ.                                          
     1  0  0.50      -384.7179   2.0000                                         
     2  0  0.50       -18.5828   2.0000                                         
     2  1  0.50        -7.0898   3.0000                                         
     3  2  1.50        -6.8029   0.0000                                         
   Description                                                                  
     l       E           TYP  RCUT    TYP  RCUT                                 
     0    -18.5828119     23  1.200                                             
     0    -13.5018863     23  1.200                                             
     1     -7.0897853     23  1.500                                             
     1      9.5240782     23  1.500                                             
     2     -6.8029130      7  1.500                                             
  local pseudopotential read in
  partial core-charges read in
  partial kinetic energy density read in
  atomic valenz-charges read in
  non local Contribution for L=           0  read in
    real space projection operators read in
  non local Contribution for L=           0  read in
    real space projection operators read in
  non local Contribution for L=           1  read in
    real space projection operators read in
  non local Contribution for L=           1  read in
    real space projection operators read in
    PAW grid and wavefunctions read in
 
   number of l-projection  operators is LMAX  =           4
   number of lm-projection operators is LMMAX =           8
 

 ----------------------------------------------------------------------------- 
|                                                                             |
|  ADVICE TO THIS USER RUNNING 'VASP/VAMP'   (HEAR YOUR MASTER'S VOICE ...):  |
|                                                                             |
|      You have a (more or less) 'small supercell' and for smaller cells      |
|      it is recommended  to use the reciprocal-space projection scheme!      |
|      The real space optimization is not  efficient for small cells and it   |
|      is also less accurate ...                                              |
|      Therefore set LREAL=.FALSE. in the  INCAR file                         |
|                                                                             |
 ----------------------------------------------------------------------------- 

 Optimization of the real space projectors (new method)

 maximal supplied QI-value         = 34.20
 optimisation between [QCUT,QGAM] = [  9.92, 20.18] = [ 27.55,114.04] Ry 
 Optimized for a Real-space Cutoff    1.26 Angstroem

   l    n(q)    QCUT    max X(q) W(low)/X(q) W(high)/X(q)  e(spline) 
   0      8     9.919    19.460    0.50E-03    0.23E-03    0.29E-06
   0      8     9.919    12.209    0.48E-03    0.23E-03    0.28E-06
   1      7     9.919     4.655    0.17E-03    0.75E-03    0.30E-06
 Optimization of the real space projectors (new method)

 maximal supplied QI-value         = 25.13
 optimisation between [QCUT,QGAM] = [ 10.05, 20.36] = [ 28.30,116.06] Ry 
 Optimized for a Real-space Cutoff    1.30 Angstroem

   l    n(q)    QCUT    max X(q) W(low)/X(q) W(high)/X(q)  e(spline) 
   0      8    10.053   115.676    0.49E-03    0.72E-03    0.18E-06
   0      8    10.053    87.132    0.49E-03    0.71E-03    0.18E-06
   1      7    10.053     4.429    0.32E-03    0.31E-03    0.18E-06
   1      7    10.053     2.733    0.23E-03    0.19E-03    0.20E-06
 Optimization of the real space projectors (new method)

 maximal supplied QI-value         = 25.13
 optimisation between [QCUT,QGAM] = [ 10.05, 20.36] = [ 28.30,116.06] Ry 
 Optimized for a Real-space Cutoff    1.65 Angstroem

   l    n(q)    QCUT    max X(q) W(low)/X(q) W(high)/X(q)  e(spline) 
   0     10    10.053    79.467    0.76E-04    0.72E-04    0.56E-06
   0     10    10.053    66.151    0.76E-04    0.72E-04    0.55E-06
   1     10    10.053     8.350    0.25E-03    0.92E-03    0.41E-05
   1     10    10.053     5.531    0.27E-03    0.10E-02    0.45E-05
  PAW_PBE H 15Jun2001                   :
 energy of atom  1       EATOM=  -12.4884
 kinetic energy error for atom=    0.0098 (will be added to EATOM!!)
  PAW_PBE C 08Apr2002                   :
 energy of atom  2       EATOM= -147.1560
 kinetic energy error for atom=    0.0288 (will be added to EATOM!!)
  PAW_PBE N 08Apr2002                   :
 energy of atom  3       EATOM= -264.5486
 kinetic energy error for atom=    0.0736 (will be added to EATOM!!)
 
 
 POSCAR: H3 C2 N1                                
  positions in direct lattice
  velocities in cartesian coordinates
 exchange correlation table for  LEXCH =        8
   RHO(1)=    0.500       N(1)  =     2000
   RHO(2)=  100.500       N(2)  =     4000

 VTST: version 3.2, (02/03/18)

 CHAIN: initializing optimizer
 
 OPT: Using FIRE optimizer
 OPT: FIRE, Init
 OPT: FIRE, MAXMOVE       0.20000
 OPT: FIRE, TIMESTEP      0.10000
 OPT: FIRE, FTIMEMAX      1.00000
 OPT: FIRE, FTIMEINC      1.10000
 OPT: FIRE, FTIMEDEC      0.50000
 OPT: FIRE, FALPHADEC     0.99000
 OPT: FIRE, FALPHA        0.10000
 OPT: FIRE, FNMIN         5
 
 CHAIN: Read ICHAIN            0
 CHAIN: Running the NEB
 NEB:          SPRING     -5.000000
 NEB:          LCLIMB      T
 NEB:     LTANGENTOLD      F
 NEB:           LDNEB      F
 NEB:        LDNEBORG      F
 NEB:        LNEBCELL      F
 NEB:          EFIRST      0.000000
 NEB:           ELAST      0.000000
 
 POSCAR: H3 C2 N1                                
  positions in direct lattice
  No initial velocities read in
 
 POSCAR: H3 C2 N1                                
  positions in direct lattice
  No initial velocities read in
 


--------------------------------------------------------------------------------------------------------


 ion  position               nearest neighbor table
   1  0.474  0.466  0.506-   4 1.09
   2  0.477  0.511  0.465-   4 1.09
   3  0.475  0.523  0.523-   4 1.10
   4  0.486  0.499  0.498-   2 1.09   1 1.09   3 1.10   5 1.73   6 1.90
   5  0.542  0.487  0.488-   6 1.20   4 1.73
   6  0.544  0.513  0.519-   5 1.20   4 1.90
 
  LATTYP: Found a simple cubic cell.
 ALAT       =    30.0000000000
  
  Lattice vectors:
  
 A1 = (  30.0000000000,   0.0000000000,   0.0000000000)
 A2 = (   0.0000000000,  30.0000000000,   0.0000000000)
 A3 = (   0.0000000000,   0.0000000000,  30.0000000000)


Analysis of symmetry for initial positions (statically):
=====================================================================
 Subroutine PRICEL returns:
 Original cell was already a primitive cell.
 

 Routine SETGRP: Setting up the symmetry group for a 
 simple cubic supercell.


 Subroutine GETGRP returns: Found  1 space group operations
 (whereof  1 operations were pure point group operations)
 out of a pool of 48 trial point group operations.


The static configuration has the point symmetry C_1 .


Analysis of symmetry for dynamics (positions and initial velocities):
=====================================================================
 Subroutine PRICEL returns:
 Original cell was already a primitive cell.
 

 Routine SETGRP: Setting up the symmetry group for a 
 simple cubic supercell.


 Subroutine GETGRP returns: Found  1 space group operations
 (whereof  1 operations were pure point group operations)
 out of a pool of 48 trial point group operations.


The dynamic configuration has the point symmetry C_1 .
 
 
 KPOINTS: Mo2C                                    

Automatic generation of k-mesh.
Space group operators:
 irot       det(A)        alpha          n_x          n_y          n_z        tau_x        tau_y        tau_z
    1     1.000000     0.000000     1.000000     0.000000     0.000000     0.000000     0.000000     0.000000
 
 Subroutine IBZKPT returns following result:
 ===========================================
 
 Found      4 irreducible k-points:
 
 Following reciprocal coordinates:
            Coordinates               Weight
  0.250000  0.250000  0.250000      2.000000
 -0.250000  0.250000  0.250000      2.000000
  0.250000 -0.250000  0.250000      2.000000
 -0.250000 -0.250000  0.250000      2.000000
 
 Following cartesian coordinates:
            Coordinates               Weight
  0.008333  0.008333  0.008333      2.000000
 -0.008333  0.008333  0.008333      2.000000
  0.008333 -0.008333  0.008333      2.000000
 -0.008333 -0.008333  0.008333      2.000000
 


--------------------------------------------------------------------------------------------------------




 Dimension of arrays:
   k-points           NKPTS =      4   k-points in BZ     NKDIM =      4   number of bands    NBANDS=     12
   number of dos      NEDOS =    301   number of ions     NIONS =      6
   non local maximal  LDIM  =      4   non local SUM 2l+1 LMDIM =      8
   total plane-waves  NPLWV = ******
   max r-space proj   IRMAX =   2395   max aug-charges    IRDMAX=   1738
   dimension x,y,z NGX =   150 NGY =  150 NGZ =  150
   dimension x,y,z NGXF=   300 NGYF=  300 NGZF=  300
   support grid    NGXF=   300 NGYF=  300 NGZF=  300
   ions per type =               3   2   1
 NGX,Y,Z   is equivalent  to a cutoff of   8.31,  8.31,  8.31 a.u.
 NGXF,Y,Z  is equivalent  to a cutoff of  16.62, 16.62, 16.62 a.u.


 I would recommend the setting:
   dimension x,y,z NGX =   147 NGY =  147 NGZ =  147
 SYSTEM =  unknown system                          
 POSCAR =  H3 C2 N1                                

 Startparameter for this run:
   NWRITE =      2    write-flag & timer
   PREC   = normal    normal or accurate (medium, high low for compatibility)
   ISTART =      0    job   : 0-new  1-cont  2-samecut
   ICHARG =      2    charge: 1-file 2-atom 10-const
   ISPIN  =      1    spin polarized calculation?
   LNONCOLLINEAR =      F non collinear calculations
   LSORBIT =      F    spin-orbit coupling
   INIWAV =      1    electr: 0-lowe 1-rand  2-diag
   LASPH  =      F    aspherical Exc in radial PAW
   METAGGA=      F    non-selfconsistent MetaGGA calc.

 Electronic Relaxation 1
   ENCUT  =  400.0 eV  29.40 Ry    5.42 a.u.  48.92 48.92 48.92*2*pi/ulx,y,z
   ENINI  =  400.0     initial cutoff
   ENAUG  =  644.9 eV  augmentation charge cutoff
   NELM   =    500;   NELMIN=  6; NELMDL= -5     # of ELM steps 
   EDIFF  = 0.1E-03   stopping-criterion for ELM
   LREAL  =      T    real-space projection
   NLSPLINE    = F    spline interpolate recip. space projectors
   LCOMPAT=      F    compatible to vasp.4.4
   GGA_COMPAT  = T    GGA compatible to vasp.4.4-vasp.4.6
   LMAXPAW     = -100 max onsite density
   LMAXMIX     =    2 max onsite mixed and CHGCAR
   VOSKOWN=      0    Vosko Wilk Nusair interpolation
   ROPT   =   -0.00050  -0.00050  -0.00050
 Ionic relaxation
   EDIFFG = -.1E+00   stopping-criterion for IOM
   NSW    =    300    number of steps for IOM
   NBLOCK =      1;   KBLOCK =    300    inner block; outer block 
   IBRION =      3    ionic relax: 0-MD 1-quasi-New 2-CG
   NFREE  =      0    steps in history (QN), initial steepest desc. (CG)
   ISIF   =      2    stress and relaxation
   IWAVPR =     11    prediction:  0-non 1-charg 2-wave 3-comb
   ISYM   =      2    0-nonsym 1-usesym 2-fastsym
   LCORR  =      T    Harris-Foulkes like correction to forces

   POTIM  = 0.0000    time-step for ionic-motion
   TEIN   =    0.0    initial temperature
   TEBEG  =    0.0;   TEEND  =   0.0 temperature during run
   SMASS  =   2.00    Nose mass-parameter (am)
   estimated Nose-frequenzy (Omega)   =  0.12E+10 period in steps =  0.00 mass=   0.137E-25a.u.
   SCALEE = 1.0000    scale energy and forces
   NPACO  =    256;   APACO  = 16.0  distance and # of slots for P.C.
   PSTRESS=    0.0 pullay stress

  Mass of Ions in am
   POMASS =   1.00 12.01 14.00
  Ionic Valenz
   ZVAL   =   1.00  4.00  5.00
  Atomic Wigner-Seitz radii
   RWIGS  =  -1.00 -1.00 -1.00
  virtual crystal weights 
   VCA    =   1.00  1.00  1.00
   NELECT =      16.0000    total number of electrons
   NUPDOWN=      -1.0000    fix difference up-down

 DOS related values:
   EMIN   =  10.00;   EMAX   =-10.00  energy-range for DOS
   EFERMI =   0.00
   ISMEAR =     0;   SIGMA  =   0.20  broadening in eV -4-tet -1-fermi 0-gaus

 Electronic relaxation 2 (details)
   IALGO  =     38    algorithm
   LDIAG  =      T    sub-space diagonalisation (order eigenvalues)
   LSUBROT=      F    optimize rotation matrix (better conditioning)
   TURBO    =      0    0=normal 1=particle mesh
   IRESTART =      0    0=no restart 2=restart with 2 vectors
   NREBOOT  =      0    no. of reboots
   NMIN     =      0    reboot dimension
   EREF     =   0.00    reference energy to select bands
   IMIX   =      4    mixing-type and parameters
     AMIX     =   0.40;   BMIX     =  1.00
     AMIX_MAG =   1.60;   BMIX_MAG =  1.00
     AMIN     =   0.10
     WC   =   100.;   INIMIX=   1;  MIXPRE=   1;  MAXMIX= -45

 Intra band minimization:
   WEIMIN = 0.0010     energy-eigenvalue tresh-hold
   EBREAK =  0.21E-05  absolut break condition
   DEPER  =   0.30     relativ break condition  

   TIME   =   0.40     timestep for ELM

  volume/ion in A,a.u.               =    4500.00     30367.50
  Fermi-wavevector in a.u.,A,eV,Ry     =   0.137508  0.259852  0.257264  0.018908
  Thomas-Fermi vector in A             =   0.790710
 
 Write flags
   LWAVE  =      F    write WAVECAR
   LCHARG =      F    write CHGCAR
   LVTOT  =      F    write LOCPOT, total local potential
   LVHAR  =      F    write LOCPOT, Hartree potential only
   LELF   =      F    write electronic localiz. function (ELF)
   LORBIT =      0    0 simple, 1 ext, 2 COOP (PROOUT)


 Dipole corrections
   LMONO  =      F    monopole corrections only (constant potential shift)
   LDIPOL =      F    correct potential (dipole corrections)
   IDIPOL =      0    1-x, 2-y, 3-z, 4-all directions 
   EPSILON=  1.0000000 bulk dielectric constant

 Exchange correlation treatment:
   GGA     =    PE    GGA type
   LEXCH   =     8    internal setting for exchange type
   VOSKOWN=      0    Vosko Wilk Nusair interpolation
   LHFCALC =     F    Hartree Fock is set to
   LHFONE  =     F    Hartree Fock one center treatment
   AEXX    =    0.0000 exact exchange contribution

 Linear response parameters
   LEPSILON=     F    determine dielectric tensor
   LRPA    =     F    only Hartree local field effects (RPA)
   LNABLA  =     F    use nabla operator in PAW spheres
   LVEL    =     F    velocity operator in full k-point grid
   LINTERFAST=   F  fast interpolation
   KINTER  =     0    interpolate to denser k-point grid
   CSHIFT  =0.1000    complex shift for real part using Kramers Kronig
   OMEGAMAX=  -1.0    maximum frequency
   DEG_THRESHOLD= 0.2000000E-02 threshold for treating states as degnerate
   RTIME   =    0.100 relaxation time in fs

 Orbital magnetization related:
   ORBITALMAG=     F  switch on orbital magnetization
   LCHIMAG   =     F  perturbation theory with respect to B field
   DQ        =  0.001000  dq finite difference perturbation B field



--------------------------------------------------------------------------------------------------------


 quickmin algorithm: (dynamic with friction)
 charge density and potential will be updated during run
 non-spin polarized calculation
 Variant of blocked Davidson
 Davidson routine will perform the subspace rotation
 perform sub-space diagonalisation
    after iterative eigenvector-optimisation
 modified Broyden-mixing scheme, WC =      100.0
 initial mixing is a Kerker type mixing with AMIX =  0.4000 and BMIX =      1.0000
 Hartree-type preconditioning will be used
 using additional bands            4
 real space projection scheme for non local part
 use partial core corrections
 calculate Harris-corrections to forces 
   (improved forces if not selfconsistent)
 use gradient corrections 
 use of overlap-Matrix (Vanderbilt PP)
 Gauss-broadening in eV      SIGMA  =   0.20


--------------------------------------------------------------------------------------------------------


  energy-cutoff  :      400.00
  volume of cell :    27000.00
      direct lattice vectors                 reciprocal lattice vectors
    30.000000000  0.000000000  0.000000000     0.033333333  0.000000000  0.000000000
     0.000000000 30.000000000  0.000000000     0.000000000  0.033333333  0.000000000
     0.000000000  0.000000000 30.000000000     0.000000000  0.000000000  0.033333333

  length of vectors
    30.000000000 30.000000000 30.000000000     0.033333333  0.033333333  0.033333333


 
 k-points in units of 2pi/SCALE and weight: Mo2C                                    
   0.00833333  0.00833333  0.00833333       0.250
  -0.00833333  0.00833333  0.00833333       0.250
   0.00833333 -0.00833333  0.00833333       0.250
  -0.00833333 -0.00833333  0.00833333       0.250
 
 k-points in reciprocal lattice and weights: Mo2C                                    
   0.25000000  0.25000000  0.25000000       0.250
  -0.25000000  0.25000000  0.25000000       0.250
   0.25000000 -0.25000000  0.25000000       0.250
  -0.25000000 -0.25000000  0.25000000       0.250
 
 position of ions in fractional coordinates (direct lattice) 
   0.47385434  0.46578106  0.50618114
   0.47670414  0.51059670  0.46483502
   0.47520798  0.52310853  0.52325634
   0.48625101  0.49893004  0.49790507
   0.54175470  0.48720200  0.48808578
   0.54427799  0.51297590  0.51856769
 
 position of ions in cartesian coordinates  (Angst):
  14.21563023 13.97343179 15.18543422
  14.30112422 15.31790090 13.94505056
  14.25623942 15.69325590 15.69769030
  14.58753031 14.96790124 14.93715208
  16.25264086 14.61605999 14.64257337
  16.32833981 15.38927709 15.55703061
 


--------------------------------------------------------------------------------------------------------


 k-point  1 :   0.2500 0.2500 0.2500  plane waves:  490454
 k-point  2 :  -0.2500 0.2500 0.2500  plane waves:  490454
 k-point  3 :   0.2500-0.2500 0.2500  plane waves:  490454
 k-point  4 :  -0.2500-0.2500 0.2500  plane waves:  490454

 maximum and minimum number of plane-waves per node :    490454   490454

 maximum number of plane-waves:    490454
 maximum index in each direction: 
   IXMAX=   49   IYMAX=   49   IZMAX=   48
   IXMIN=  -49   IYMIN=  -49   IZMIN=  -49

 WARNING: aliasing errors must be expected set NGX to 198 to avoid them
 WARNING: aliasing errors must be expected set NGY to 198 to avoid them
 WARNING: aliasing errors must be expected set NGZ to 196 to avoid them
 aliasing errors are usually negligible using standard VASP settings
 and one can safely disregard these warnings

 serial   3D FFT for wavefunctions
 parallel 3D FFT for charge:
    minimum data exchange during FFTs selected (reduces bandwidth)


 total amount of memory used by VASP on root node  3203888. kBytes
========================================================================

   base      :      30000. kBytes
   nonlr-proj:        692. kBytes
   fftplans  :     924480. kBytes
   grid      :    1872000. kBytes
   one-center:         18. kBytes
   wavefun   :     376698. kBytes
 
     INWAV:  cpu time    0.0010: real time    0.0004
 Broyden mixing: mesh for mixing (old mesh)
   NGX = 97   NGY = 97   NGZ = 97
  (NGX  =300   NGY  =300   NGZ  =300)
  gives a total of 912673 points

 initial charge density was supplied:
 charge density of overlapping atoms calculated
 number of electron      16.0000000 magnetization 
 keeping initial charge density in first step


--------------------------------------------------------------------------------------------------------


 Maximum index for non-local projection operator         2274
 Maximum index for augmentation-charges         1499 (set IRDMAX)


--------------------------------------------------------------------------------------------------------


 First call to EWALD:  gamma=   0.059
 Maximum number of real-space cells 3x 3x 3
 Maximum number of reciprocal cells 3x 3x 3

 FEWALD executed in parallel
    FEWALD:  cpu time    0.0020: real time    0.0019


----------------------------------------- Iteration    1(   1)  ---------------------------------------


    POTLOK:  cpu time   25.7591: real time   25.8169
    SETDIJ:  cpu time    0.0060: real time    0.0066
     EDDAV:  cpu time  117.6651: real time  117.9312
       DOS:  cpu time    0.0010: real time    0.0003
    --------------------------------------------
      LOOP:  cpu time  143.4342: real time  143.7603

 eigenvalue-minimisations  :   160
 total energy-change (2. order) : 0.1080866E+03  (-0.2125868E+03)
 number of electron      16.0000000 magnetization 
 augmentation part       16.0000000 magnetization 

 Free energy of the ion-electron system (eV)
  ---------------------------------------------------
  alpha Z        PSCENC =         0.04144063
  Ewald energy   TEWEN  =       698.82310733
  -Hartree energ DENC   =     -1119.75170254
  -exchange      EXHF   =         0.00000000
  -V(xc)+E(xc)   XCENC  =        51.11475532
  PAW double counting   =       428.37890668     -430.73533574
  entropy T*S    EENTRO =        -0.23651417
  eigenvalues    EBANDS =      -115.71341457
  atomic energy  EATOM  =       596.16534815
  Solvation  Ediel_sol  =         0.00000000
  ---------------------------------------------------
  free energy    TOTEN  =       108.08659109 eV

  energy without entropy =      108.32310526  energy(sigma->0) =      108.20484818


--------------------------------------------------------------------------------------------------------




----------------------------------------- Iteration    1(   2)  ---------------------------------------


     EDDAV:  cpu time  141.9814: real time  142.3032
       DOS:  cpu time    0.0000: real time    0.0002
    --------------------------------------------
      LOOP:  cpu time  141.9834: real time  142.3070

 eigenvalue-minimisations  :   192
 total energy-change (2. order) :-0.1055340E+03  (-0.1023939E+03)
 number of electron      16.0000000 magnetization 
 augmentation part       16.0000000 magnetization 

 Free energy of the ion-electron system (eV)
  ---------------------------------------------------
  alpha Z        PSCENC =         0.04144063
  Ewald energy   TEWEN  =       698.82310733
  -Hartree energ DENC   =     -1119.75170254
  -exchange      EXHF   =         0.00000000
  -V(xc)+E(xc)   XCENC  =        51.11475532
  PAW double counting   =       428.37890668     -430.73533574
  entropy T*S    EENTRO =         0.00000000
  eigenvalues    EBANDS =      -221.48397002
  atomic energy  EATOM  =       596.16534815
  Solvation  Ediel_sol  =         0.00000000
  ---------------------------------------------------
  free energy    TOTEN  =         2.55254981 eV

  energy without entropy =        2.55254981  energy(sigma->0) =        2.55254981


--------------------------------------------------------------------------------------------------------




----------------------------------------- Iteration    1(   3)  ---------------------------------------


     EDDAV:  cpu time  106.7738: real time  107.0278
       DOS:  cpu time    0.0000: real time    0.0002
    --------------------------------------------
      LOOP:  cpu time  106.7748: real time  107.0317

 eigenvalue-minimisations  :   128
 total energy-change (2. order) :-0.3576600E+02  (-0.3554568E+02)
 number of electron      16.0000000 magnetization 
 augmentation part       16.0000000 magnetization 

 Free energy of the ion-electron system (eV)
  ---------------------------------------------------
  alpha Z        PSCENC =         0.04144063
  Ewald energy   TEWEN  =       698.82310733
  -Hartree energ DENC   =     -1119.75170254
  -exchange      EXHF   =         0.00000000
  -V(xc)+E(xc)   XCENC  =        51.11475532
  PAW double counting   =       428.37890668     -430.73533574
  entropy T*S    EENTRO =         0.00000000
  eigenvalues    EBANDS =      -257.24997485
  atomic energy  EATOM  =       596.16534815
  Solvation  Ediel_sol  =         0.00000000
  ---------------------------------------------------
  free energy    TOTEN  =       -33.21345502 eV

  energy without entropy =      -33.21345502  energy(sigma->0) =      -33.21345502


--------------------------------------------------------------------------------------------------------




----------------------------------------- Iteration    1(   4)  ---------------------------------------


     EDDAV:  cpu time  104.6501: real time  104.8912
       DOS:  cpu time    0.0000: real time    0.0001
    --------------------------------------------
      LOOP:  cpu time  104.6521: real time  104.8958

 eigenvalue-minimisations  :   124
 total energy-change (2. order) :-0.3602149E+01  (-0.3561764E+01)
 number of electron      16.0000000 magnetization 
 augmentation part       16.0000000 magnetization 

 Free energy of the ion-electron system (eV)
  ---------------------------------------------------
  alpha Z        PSCENC =         0.04144063
  Ewald energy   TEWEN  =       698.82310733
  -Hartree energ DENC   =     -1119.75170254
  -exchange      EXHF   =         0.00000000
  -V(xc)+E(xc)   XCENC  =        51.11475532
  PAW double counting   =       428.37890668     -430.73533574
  entropy T*S    EENTRO =         0.00000000
  eigenvalues    EBANDS =      -260.85212378
  atomic energy  EATOM  =       596.16534815
  Solvation  Ediel_sol  =         0.00000000
  ---------------------------------------------------
  free energy    TOTEN  =       -36.81560395 eV

  energy without entropy =      -36.81560395  energy(sigma->0) =      -36.81560395


--------------------------------------------------------------------------------------------------------




----------------------------------------- Iteration    1(   5)  ---------------------------------------


     EDDAV:  cpu time  125.5149: real time  125.7997
       DOS:  cpu time    0.0000: real time    0.0002
    CHARGE:  cpu time    8.1248: real time    8.1433
    MIXING:  cpu time    0.7489: real time    0.7521
    --------------------------------------------
      LOOP:  cpu time  134.3896: real time  134.6990

 eigenvalue-minimisations  :   156
 total energy-change (2. order) :-0.1127796E+00  (-0.1112160E+00)
 number of electron      16.0000009 magnetization 
 augmentation part        0.4334947 magnetization 

 Broyden mixing:
  rms(total) = 0.10291E+01    rms(broyden)= 0.10270E+01
  rms(prec ) = 0.10599E+01
  weight for this iteration     100.00

 Free energy of the ion-electron system (eV)
  ---------------------------------------------------
  alpha Z        PSCENC =         0.04144063
  Ewald energy   TEWEN  =       698.82310733
  -Hartree energ DENC   =     -1119.75170254
  -exchange      EXHF   =         0.00000000
  -V(xc)+E(xc)   XCENC  =        51.11475532
  PAW double counting   =       428.37890668     -430.73533574
  entropy T*S    EENTRO =         0.00000000
  eigenvalues    EBANDS =      -260.96490335
  atomic energy  EATOM  =       596.16534815
  Solvation  Ediel_sol  =         0.00000000
  ---------------------------------------------------
  free energy    TOTEN  =       -36.92838352 eV

  energy without entropy =      -36.92838352  energy(sigma->0) =      -36.92838352


--------------------------------------------------------------------------------------------------------




----------------------------------------- Iteration    1(   6)  ---------------------------------------


    POTLOK:  cpu time   28.7356: real time   28.8031
    SETDIJ:  cpu time    0.0070: real time    0.0067
     EDDAV:  cpu time   92.9809: real time   93.1932
       DOS:  cpu time    0.0000: real time    0.0002
    CHARGE:  cpu time    8.9346: real time    8.9557
    MIXING:  cpu time    0.7889: real time    0.7918
    --------------------------------------------
      LOOP:  cpu time  131.4500: real time  131.7553

 eigenvalue-minimisations  :   108
 total energy-change (2. order) : 0.2273254E+01  (-0.3632966E+00)
 number of electron      16.0000010 magnetization 
 augmentation part        0.3963622 magnetization 

 Broyden mixing:
  rms(total) = 0.56027E+00    rms(broyden)= 0.56014E+00
  rms(prec ) = 0.57437E+00
  weight for this iteration     100.00

 eigenvalues of (default mixing * dielectric matrix)
  average eigenvalue GAMMA=   1.7247
  1.7247

 Free energy of the ion-electron system (eV)
  ---------------------------------------------------
  alpha Z        PSCENC =         0.04144063
  Ewald energy   TEWEN  =       698.82310733
  -Hartree energ DENC   =     -1145.83590574
  -exchange      EXHF   =         0.00000000
  -V(xc)+E(xc)   XCENC  =        52.59181493
  PAW double counting   =       676.82387694     -679.42748714
  entropy T*S    EENTRO =         0.00000000
  eigenvalues    EBANDS =      -233.83732442
  atomic energy  EATOM  =       596.16534815
  Solvation  Ediel_sol  =         0.00000000
  ---------------------------------------------------
  free energy    TOTEN  =       -34.65512932 eV

  energy without entropy =      -34.65512932  energy(sigma->0) =      -34.65512932


--------------------------------------------------------------------------------------------------------




----------------------------------------- Iteration    1(   7)  ---------------------------------------


    POTLOK:  cpu time   26.4830: real time   26.5437
    SETDIJ:  cpu time    0.0060: real time    0.0066
     EDDAV:  cpu time  108.3955: real time  108.6427
       DOS:  cpu time    0.0000: real time    0.0002
    CHARGE:  cpu time    7.5229: real time    7.5407
    MIXING:  cpu time    0.9569: real time    0.9591
    --------------------------------------------
      LOOP:  cpu time  143.3682: real time  143.6971

 eigenvalue-minimisations  :   128
 total energy-change (2. order) : 0.6108615E+00  (-0.1612590E+00)
 number of electron      16.0000009 magnetization 
 augmentation part        0.3871964 magnetization 

 Broyden mixing:
  rms(total) = 0.19850E+00    rms(broyden)= 0.19843E+00
  rms(prec ) = 0.20340E+00
  weight for this iteration     100.00

 eigenvalues of (default mixing * dielectric matrix)
  average eigenvalue GAMMA=   1.6111
  1.1112  2.1111

 Free energy of the ion-electron system (eV)
  ---------------------------------------------------
  alpha Z        PSCENC =         0.04144063
  Ewald energy   TEWEN  =       698.82310733
  -Hartree energ DENC   =     -1166.11902814
  -exchange      EXHF   =         0.00000000
  -V(xc)+E(xc)   XCENC  =        53.83991389
  PAW double counting   =      1010.87556513    -1013.61696185
  entropy T*S    EENTRO =         0.00000000
  eigenvalues    EBANDS =      -214.05365293
  atomic energy  EATOM  =       596.16534815
  Solvation  Ediel_sol  =         0.00000000
  ---------------------------------------------------
  free energy    TOTEN  =       -34.04426779 eV

  energy without entropy =      -34.04426779  energy(sigma->0) =      -34.04426779


--------------------------------------------------------------------------------------------------------




----------------------------------------- Iteration    1(   8)  ---------------------------------------


    POTLOK:  cpu time   26.6429: real time   26.7049
    SETDIJ:  cpu time    0.0070: real time    0.0066
     EDDAV:  cpu time  110.1063: real time  110.3605
       DOS:  cpu time    0.0000: real time    0.0002
    CHARGE:  cpu time    8.1838: real time    8.2041
    MIXING:  cpu time    1.0388: real time    1.0419
    --------------------------------------------
      LOOP:  cpu time  145.9798: real time  146.3227

 eigenvalue-minimisations  :   128
 total energy-change (2. order) : 0.5353915E-01  (-0.1043109E-01)
 number of electron      16.0000009 magnetization 
 augmentation part        0.3786155 magnetization 

 Broyden mixing:
  rms(total) = 0.75558E-01    rms(broyden)= 0.75534E-01
  rms(prec ) = 0.79337E-01
  weight for this iteration     100.00

 eigenvalues of (default mixing * dielectric matrix)
  average eigenvalue GAMMA=   1.5512
  2.3160  1.5418  0.7957

 Free energy of the ion-electron system (eV)
  ---------------------------------------------------
  alpha Z        PSCENC =         0.04144063
  Ewald energy   TEWEN  =       698.82310733
  -Hartree energ DENC   =     -1171.13343511
  -exchange      EXHF   =         0.00000000
  -V(xc)+E(xc)   XCENC  =        54.17042515
  PAW double counting   =      1142.91843335    -1145.65834741
  entropy T*S    EENTRO =         0.00000000
  eigenvalues    EBANDS =      -209.31770073
  atomic energy  EATOM  =       596.16534815
  Solvation  Ediel_sol  =         0.00000000
  ---------------------------------------------------
  free energy    TOTEN  =       -33.99072864 eV

  energy without entropy =      -33.99072864  energy(sigma->0) =      -33.99072864


--------------------------------------------------------------------------------------------------------




----------------------------------------- Iteration    1(   9)  ---------------------------------------


    POTLOK:  cpu time   27.4818: real time   27.5443
    SETDIJ:  cpu time    0.0070: real time    0.0065
     EDDAV:  cpu time  108.1476: real time  108.3953
       DOS:  cpu time    0.0000: real time    0.0002
    CHARGE:  cpu time    7.5788: real time    7.5950
    MIXING:  cpu time    1.0138: real time    1.0169
    --------------------------------------------
      LOOP:  cpu time  144.2311: real time  144.5635

 eigenvalue-minimisations  :   128
 total energy-change (2. order) : 0.1381173E-01  (-0.2073722E-02)
 number of electron      16.0000009 magnetization 
 augmentation part        0.3804963 magnetization 

 Broyden mixing:
  rms(total) = 0.22672E-01    rms(broyden)= 0.22662E-01
  rms(prec ) = 0.27378E-01
  weight for this iteration     100.00

 eigenvalues of (default mixing * dielectric matrix)
  average eigenvalue GAMMA=   1.5014
  2.2030  1.8205  1.1456  0.8363

 Free energy of the ion-electron system (eV)
  ---------------------------------------------------
  alpha Z        PSCENC =         0.04144063
  Ewald energy   TEWEN  =       698.82310733
  -Hartree energ DENC   =     -1172.39310900
  -exchange      EXHF   =         0.00000000
  -V(xc)+E(xc)   XCENC  =        54.23761962
  PAW double counting   =      1185.76595111    -1188.48077587
  entropy T*S    EENTRO =         0.00000000
  eigenvalues    EBANDS =      -208.13649888
  atomic energy  EATOM  =       596.16534815
  Solvation  Ediel_sol  =         0.00000000
  ---------------------------------------------------
  free energy    TOTEN  =       -33.97691691 eV

  energy without entropy =      -33.97691691  energy(sigma->0) =      -33.97691691


--------------------------------------------------------------------------------------------------------




----------------------------------------- Iteration    1(  10)  ---------------------------------------


    POTLOK:  cpu time   26.6889: real time   26.7514
    SETDIJ:  cpu time    0.0070: real time    0.0066
     EDDAV:  cpu time  108.5415: real time  108.7904
       DOS:  cpu time    0.0000: real time    0.0002
    CHARGE:  cpu time    7.5639: real time    7.5811
    MIXING:  cpu time    1.1298: real time    1.1330
    --------------------------------------------
      LOOP:  cpu time  143.9331: real time  144.2674

 eigenvalue-minimisations  :   128
 total energy-change (2. order) : 0.8369749E-03  (-0.5050415E-03)
 number of electron      16.0000009 magnetization 
 augmentation part        0.3814409 magnetization 

 Broyden mixing:
  rms(total) = 0.12289E-01    rms(broyden)= 0.12282E-01
  rms(prec ) = 0.17070E-01
  weight for this iteration     100.00

 eigenvalues of (default mixing * dielectric matrix)
  average eigenvalue GAMMA=   1.4379
  2.0842  2.0842  1.3378  0.8416  0.8416

 Free energy of the ion-electron system (eV)
  ---------------------------------------------------
  alpha Z        PSCENC =         0.04144063
  Ewald energy   TEWEN  =       698.82310733
  -Hartree energ DENC   =     -1173.30377421
  -exchange      EXHF   =         0.00000000
  -V(xc)+E(xc)   XCENC  =        54.25441176
  PAW double counting   =      1184.01760483    -1186.72643866
  entropy T*S    EENTRO =         0.00000000
  eigenvalues    EBANDS =      -207.24777977
  atomic energy  EATOM  =       596.16534815
  Solvation  Ediel_sol  =         0.00000000
  ---------------------------------------------------
  free energy    TOTEN  =       -33.97607993 eV

  energy without entropy =      -33.97607993  energy(sigma->0) =      -33.97607993


--------------------------------------------------------------------------------------------------------




----------------------------------------- Iteration    1(  11)  ---------------------------------------


    POTLOK:  cpu time   28.6077: real time   28.6730
    SETDIJ:  cpu time    0.0070: real time    0.0069
     EDDAV:  cpu time  108.8754: real time  109.1248
       DOS:  cpu time    0.0000: real time    0.0002
    CHARGE:  cpu time    7.7858: real time    7.8039
    MIXING:  cpu time    1.2058: real time    1.2078
    --------------------------------------------
      LOOP:  cpu time  146.4837: real time  146.8207

 eigenvalue-minimisations  :   128
 total energy-change (2. order) :-0.8373594E-03  (-0.8803901E-04)
 number of electron      16.0000009 magnetization 
 augmentation part        0.3807565 magnetization 

 Broyden mixing:
  rms(total) = 0.84234E-02    rms(broyden)= 0.84222E-02
  rms(prec ) = 0.12595E-01
  weight for this iteration     100.00

 eigenvalues of (default mixing * dielectric matrix)
  average eigenvalue GAMMA=   1.6332
  2.6804  2.6804  1.3100  1.3100  0.9093  0.9093

 Free energy of the ion-electron system (eV)
  ---------------------------------------------------
  alpha Z        PSCENC =         0.04144063
  Ewald energy   TEWEN  =       698.82310733
  -Hartree energ DENC   =     -1174.19959864
  -exchange      EXHF   =         0.00000000
  -V(xc)+E(xc)   XCENC  =        54.27990777
  PAW double counting   =      1181.80468598    -1184.51288088
  entropy T*S    EENTRO =         0.00000000
  eigenvalues    EBANDS =      -206.37892762
  atomic energy  EATOM  =       596.16534815
  Solvation  Ediel_sol  =         0.00000000
  ---------------------------------------------------
  free energy    TOTEN  =       -33.97691729 eV

  energy without entropy =      -33.97691729  energy(sigma->0) =      -33.97691729


--------------------------------------------------------------------------------------------------------




----------------------------------------- Iteration    1(  12)  ---------------------------------------


    POTLOK:  cpu time   26.4320: real time   26.4926
    SETDIJ:  cpu time    0.0060: real time    0.0067
     EDDAV:  cpu time  108.2086: real time  108.4563
       DOS:  cpu time    0.0000: real time    0.0002
    CHARGE:  cpu time    8.2078: real time    8.2269
    MIXING:  cpu time    1.5698: real time    1.5738
    --------------------------------------------
      LOOP:  cpu time  144.4250: real time  144.7604

 eigenvalue-minimisations  :   128
 total energy-change (2. order) :-0.3993034E-02  (-0.2461978E-03)
 number of electron      16.0000009 magnetization 
 augmentation part        0.3805000 magnetization 

 Broyden mixing:
  rms(total) = 0.39273E-02    rms(broyden)= 0.39244E-02
  rms(prec ) = 0.63386E-02
  weight for this iteration     100.00

 eigenvalues of (default mixing * dielectric matrix)
  average eigenvalue GAMMA=   1.7262
  3.7221  2.2835  1.7572  1.3356  0.9018  0.9018  1.1819

 Free energy of the ion-electron system (eV)
  ---------------------------------------------------
  alpha Z        PSCENC =         0.04144063
  Ewald energy   TEWEN  =       698.82310733
  -Hartree energ DENC   =     -1175.75842120
  -exchange      EXHF   =         0.00000000
  -V(xc)+E(xc)   XCENC  =        54.31566609
  PAW double counting   =      1177.41000076    -1180.11436530
  entropy T*S    EENTRO =         0.00000000
  eigenvalues    EBANDS =      -204.86368678
  atomic energy  EATOM  =       596.16534815
  Solvation  Ediel_sol  =         0.00000000
  ---------------------------------------------------
  free energy    TOTEN  =       -33.98091033 eV

  energy without entropy =      -33.98091033  energy(sigma->0) =      -33.98091033


--------------------------------------------------------------------------------------------------------




----------------------------------------- Iteration    1(  13)  ---------------------------------------


    POTLOK:  cpu time   28.9146: real time   28.9805
    SETDIJ:  cpu time    0.0060: real time    0.0065
     EDDAV:  cpu time  127.8536: real time  128.1449
       DOS:  cpu time    0.0000: real time    0.0002
    CHARGE:  cpu time    7.8088: real time    7.8266
    MIXING:  cpu time    1.5758: real time    1.5797
    --------------------------------------------
      LOOP:  cpu time  166.1617: real time  166.5430

 eigenvalue-minimisations  :   160
 total energy-change (2. order) :-0.4747190E-02  (-0.1142960E-03)
 number of electron      16.0000009 magnetization 
 augmentation part        0.3802685 magnetization 

 Broyden mixing:
  rms(total) = 0.29416E-02    rms(broyden)= 0.29398E-02
  rms(prec ) = 0.42508E-02
  weight for this iteration     100.00

 eigenvalues of (default mixing * dielectric matrix)
  average eigenvalue GAMMA=   1.7986
  4.4796  2.4636  2.0216  1.4831  1.3097  0.9066  0.9066  0.8178

 Free energy of the ion-electron system (eV)
  ---------------------------------------------------
  alpha Z        PSCENC =         0.04144063
  Ewald energy   TEWEN  =       698.82310733
  -Hartree energ DENC   =     -1176.46494704
  -exchange      EXHF   =         0.00000000
  -V(xc)+E(xc)   XCENC  =        54.32797376
  PAW double counting   =      1177.26090180    -1179.96563643
  entropy T*S    EENTRO =         0.00000000
  eigenvalues    EBANDS =      -204.17384572
  atomic energy  EATOM  =       596.16534815
  Solvation  Ediel_sol  =         0.00000000
  ---------------------------------------------------
  free energy    TOTEN  =       -33.98565752 eV

  energy without entropy =      -33.98565752  energy(sigma->0) =      -33.98565752


--------------------------------------------------------------------------------------------------------




----------------------------------------- Iteration    1(  14)  ---------------------------------------


    POTLOK:  cpu time   28.5687: real time   28.6356
    SETDIJ:  cpu time    0.0070: real time    0.0066
     EDDAV:  cpu time  103.7502: real time  103.9785
       DOS:  cpu time    0.0000: real time    0.0002
    CHARGE:  cpu time    7.6268: real time    7.6430
    MIXING:  cpu time    1.5528: real time    1.5559
    --------------------------------------------
      LOOP:  cpu time  141.5075: real time  141.8236

 eigenvalue-minimisations  :   128
 total energy-change (2. order) :-0.3595722E-02  (-0.3637683E-04)
 number of electron      16.0000009 magnetization 
 augmentation part        0.3802767 magnetization 

 Broyden mixing:
  rms(total) = 0.15575E-02    rms(broyden)= 0.15574E-02
  rms(prec ) = 0.24214E-02
  weight for this iteration     100.00

 eigenvalues of (default mixing * dielectric matrix)
  average eigenvalue GAMMA=   1.8770
  4.9048  2.9384  2.2975  1.6208  1.2565  1.2565  0.8949  0.8949  0.8289

 Free energy of the ion-electron system (eV)
  ---------------------------------------------------
  alpha Z        PSCENC =         0.04144063
  Ewald energy   TEWEN  =       698.82310733
  -Hartree energ DENC   =     -1176.70253049
  -exchange      EXHF   =         0.00000000
  -V(xc)+E(xc)   XCENC  =        54.32296515
  PAW double counting   =      1175.60359589    -1178.30809196
  entropy T*S    EENTRO =         0.00000000
  eigenvalues    EBANDS =      -203.93508794
  atomic energy  EATOM  =       596.16534815
  Solvation  Ediel_sol  =         0.00000000
  ---------------------------------------------------
  free energy    TOTEN  =       -33.98925324 eV

  energy without entropy =      -33.98925324  energy(sigma->0) =      -33.98925324


--------------------------------------------------------------------------------------------------------




----------------------------------------- Iteration    1(  15)  ---------------------------------------


    POTLOK:  cpu time   26.9499: real time   27.0106
    SETDIJ:  cpu time    0.0070: real time    0.0067
     EDDAV:  cpu time   90.9532: real time   91.1495
       DOS:  cpu time    0.0000: real time    0.0002
    CHARGE:  cpu time    7.1299: real time    7.1451
    MIXING:  cpu time    1.5408: real time    1.5445
    --------------------------------------------
      LOOP:  cpu time  126.5818: real time  126.8617

 eigenvalue-minimisations  :   112
 total energy-change (2. order) :-0.2518730E-02  (-0.2195859E-04)
 number of electron      16.0000009 magnetization 
 augmentation part        0.3802755 magnetization 

 Broyden mixing:
  rms(total) = 0.93037E-03    rms(broyden)= 0.93027E-03
  rms(prec ) = 0.14722E-02
  weight for this iteration     100.00

 eigenvalues of (default mixing * dielectric matrix)
  average eigenvalue GAMMA=   2.0217
  6.3872  3.2145  2.3242  1.7810  1.4878  1.3068  1.0713  0.8937  0.8937  0.8571

 Free energy of the ion-electron system (eV)
  ---------------------------------------------------
  alpha Z        PSCENC =         0.04144063
  Ewald energy   TEWEN  =       698.82310733
  -Hartree energ DENC   =     -1176.80088121
  -exchange      EXHF   =         0.00000000
  -V(xc)+E(xc)   XCENC  =        54.31953715
  PAW double counting   =      1175.96915061    -1178.67377196
  entropy T*S    EENTRO =         0.00000000
  eigenvalues    EBANDS =      -203.83570267
  atomic energy  EATOM  =       596.16534815
  Solvation  Ediel_sol  =         0.00000000
  ---------------------------------------------------
  free energy    TOTEN  =       -33.99177197 eV

  energy without entropy =      -33.99177197  energy(sigma->0) =      -33.99177197


--------------------------------------------------------------------------------------------------------




----------------------------------------- Iteration    1(  16)  ---------------------------------------


    POTLOK:  cpu time   25.6741: real time   25.7318
    SETDIJ:  cpu time    0.0060: real time    0.0066
     EDDAV:  cpu time   97.2912: real time   97.4997
       DOS:  cpu time    0.0000: real time    0.0002
    CHARGE:  cpu time    7.5239: real time    7.5398
    MIXING:  cpu time    1.7377: real time    1.7408
    --------------------------------------------
      LOOP:  cpu time  132.2349: real time  132.5223

 eigenvalue-minimisations  :   124
 total energy-change (2. order) :-0.1721830E-02  (-0.1601889E-04)
 number of electron      16.0000009 magnetization 
 augmentation part        0.3802481 magnetization 

 Broyden mixing:
  rms(total) = 0.55773E-03    rms(broyden)= 0.55748E-03
  rms(prec ) = 0.81679E-03
  weight for this iteration     100.00

 eigenvalues of (default mixing * dielectric matrix)
  average eigenvalue GAMMA=   2.1713
  7.2750  3.7321  2.4921  2.4921  1.4659  1.3967  1.3967  0.9076  0.9076  0.9778
  0.8411

 Free energy of the ion-electron system (eV)
  ---------------------------------------------------
  alpha Z        PSCENC =         0.04144063
  Ewald energy   TEWEN  =       698.82310733
  -Hartree energ DENC   =     -1176.89560568
  -exchange      EXHF   =         0.00000000
  -V(xc)+E(xc)   XCENC  =        54.31789087
  PAW double counting   =      1176.04193497    -1178.74651599
  entropy T*S    EENTRO =         0.00000000
  eigenvalues    EBANDS =      -203.74109409
  atomic energy  EATOM  =       596.16534815
  Solvation  Ediel_sol  =         0.00000000
  ---------------------------------------------------
  free energy    TOTEN  =       -33.99349380 eV

  energy without entropy =      -33.99349380  energy(sigma->0) =      -33.99349380


--------------------------------------------------------------------------------------------------------




----------------------------------------- Iteration    1(  17)  ---------------------------------------


    POTLOK:  cpu time   25.6041: real time   25.6598
    SETDIJ:  cpu time    0.0060: real time    0.0065
     EDDAV:  cpu time   78.1491: real time   78.3161
       DOS:  cpu time    0.0000: real time    0.0002
    CHARGE:  cpu time    7.6738: real time    7.6904
    MIXING:  cpu time    2.0577: real time    2.0635
    --------------------------------------------
      LOOP:  cpu time  113.4917: real time  113.7413

 eigenvalue-minimisations  :    92
 total energy-change (2. order) :-0.9684476E-03  (-0.5170587E-05)
 number of electron      16.0000009 magnetization 
 augmentation part        0.3802413 magnetization 

 Broyden mixing:
  rms(total) = 0.29204E-03    rms(broyden)= 0.29199E-03
  rms(prec ) = 0.40822E-03
  weight for this iteration     100.00

 eigenvalues of (default mixing * dielectric matrix)
  average eigenvalue GAMMA=   2.2197
  7.7560  4.2752  2.6824  2.1329  2.1329  1.5327  1.2600  1.2600  0.9044  0.9044
  0.9538  0.8420

 Free energy of the ion-electron system (eV)
  ---------------------------------------------------
  alpha Z        PSCENC =         0.04144063
  Ewald energy   TEWEN  =       698.82310733
  -Hartree energ DENC   =     -1176.89833146
  -exchange      EXHF   =         0.00000000
  -V(xc)+E(xc)   XCENC  =        54.31576883
  PAW double counting   =      1176.17306436    -1178.87744682
  entropy T*S    EENTRO =         0.00000000
  eigenvalues    EBANDS =      -203.73741327
  atomic energy  EATOM  =       596.16534815
  Solvation  Ediel_sol  =         0.00000000
  ---------------------------------------------------
  free energy    TOTEN  =       -33.99446225 eV

  energy without entropy =      -33.99446225  energy(sigma->0) =      -33.99446225


--------------------------------------------------------------------------------------------------------




----------------------------------------- Iteration    1(  18)  ---------------------------------------


    POTLOK:  cpu time   25.9061: real time   25.9630
    SETDIJ:  cpu time    0.0070: real time    0.0066
     EDDAV:  cpu time   79.8419: real time   80.0118
       DOS:  cpu time    0.0000: real time    0.0002
    CHARGE:  cpu time    7.3979: real time    7.4140
    MIXING:  cpu time    1.9117: real time    1.9151
    --------------------------------------------
      LOOP:  cpu time  115.0655: real time  115.3146

 eigenvalue-minimisations  :    96
 total energy-change (2. order) :-0.3098377E-03  (-0.2578921E-05)
 number of electron      16.0000009 magnetization 
 augmentation part        0.3802374 magnetization 

 Broyden mixing:
  rms(total) = 0.17873E-03    rms(broyden)= 0.17871E-03
  rms(prec ) = 0.24357E-03
  weight for this iteration     100.00

 eigenvalues of (default mixing * dielectric matrix)
  average eigenvalue GAMMA=   2.2898
  8.2580  5.0133  2.7904  2.6223  2.1942  1.4825  1.3549  1.3549  1.0730  0.9059
  0.9059  0.9646  0.8474

 Free energy of the ion-electron system (eV)
  ---------------------------------------------------
  alpha Z        PSCENC =         0.04144063
  Ewald energy   TEWEN  =       698.82310733
  -Hartree energ DENC   =     -1176.89975046
  -exchange      EXHF   =         0.00000000
  -V(xc)+E(xc)   XCENC  =        54.31545543
  PAW double counting   =      1176.26050465    -1178.96492009
  entropy T*S    EENTRO =         0.00000000
  eigenvalues    EBANDS =      -203.73595772
  atomic energy  EATOM  =       596.16534815
  Solvation  Ediel_sol  =         0.00000000
  ---------------------------------------------------
  free energy    TOTEN  =       -33.99477208 eV

  energy without entropy =      -33.99477208  energy(sigma->0) =      -33.99477208


--------------------------------------------------------------------------------------------------------




----------------------------------------- Iteration    1(  19)  ---------------------------------------


    POTLOK:  cpu time   24.9902: real time   25.0453
    SETDIJ:  cpu time    0.0070: real time    0.0065
     EDDAV:  cpu time   69.1125: real time   69.2604
       DOS:  cpu time    0.0000: real time    0.0002
    CHARGE:  cpu time    7.0229: real time    7.0375
    MIXING:  cpu time    1.8927: real time    1.8968
    --------------------------------------------
      LOOP:  cpu time  103.0263: real time  103.2506

 eigenvalue-minimisations  :    80
 total energy-change (2. order) :-0.1587885E-03  (-0.1155960E-05)
 number of electron      16.0000009 magnetization 
 augmentation part        0.3802304 magnetization 

 Broyden mixing:
  rms(total) = 0.10910E-03    rms(broyden)= 0.10905E-03
  rms(prec ) = 0.14285E-03
  weight for this iteration     100.00

 eigenvalues of (default mixing * dielectric matrix)
  average eigenvalue GAMMA=   2.3083
  8.6159  5.1283  3.2897  2.5474  2.0071  2.0071  1.4885  1.3046  1.3046  1.0338
  0.9060  0.9060  0.9359  0.8418

 Free energy of the ion-electron system (eV)
  ---------------------------------------------------
  alpha Z        PSCENC =         0.04144063
  Ewald energy   TEWEN  =       698.82310733
  -Hartree energ DENC   =     -1176.89674379
  -exchange      EXHF   =         0.00000000
  -V(xc)+E(xc)   XCENC  =        54.31501017
  PAW double counting   =      1176.10795687    -1178.81239839
  entropy T*S    EENTRO =         0.00000000
  eigenvalues    EBANDS =      -203.73865185
  atomic energy  EATOM  =       596.16534815
  Solvation  Ediel_sol  =         0.00000000
  ---------------------------------------------------
  free energy    TOTEN  =       -33.99493087 eV

  energy without entropy =      -33.99493087  energy(sigma->0) =      -33.99493087


--------------------------------------------------------------------------------------------------------




----------------------------------------- Iteration    1(  20)  ---------------------------------------


    POTLOK:  cpu time   23.0245: real time   23.0731
    SETDIJ:  cpu time    0.0070: real time    0.0064
     EDDAV:  cpu time   70.8962: real time   71.0428
       DOS:  cpu time    0.0000: real time    0.0002
    --------------------------------------------
      LOOP:  cpu time   93.9297: real time   94.1259

 eigenvalue-minimisations  :    96
 total energy-change (2. order) :-0.7781368E-04  (-0.3923740E-06)
 number of electron      16.0000009 magnetization 
 augmentation part        0.3802304 magnetization 

 Free energy of the ion-electron system (eV)
  ---------------------------------------------------
  alpha Z        PSCENC =         0.04144063
  Ewald energy   TEWEN  =       698.82310733
  -Hartree energ DENC   =     -1176.89889030
  -exchange      EXHF   =         0.00000000
  -V(xc)+E(xc)   XCENC  =        54.31485412
  PAW double counting   =      1176.08160602    -1178.78603959
  entropy T*S    EENTRO =         0.00000000
  eigenvalues    EBANDS =      -203.73643505
  atomic energy  EATOM  =       596.16534815
  Solvation  Ediel_sol  =         0.00000000
  ---------------------------------------------------
  free energy    TOTEN  =       -33.99500869 eV

  energy without entropy =      -33.99500869  energy(sigma->0) =      -33.99500869


--------------------------------------------------------------------------------------------------------




 average (electrostatic) potential at core
  the test charge radii are     0.5201  0.6991  0.7089
  (the norm of the test charge is              1.0000)
       1 -43.1329       2 -43.1461       3 -43.0793       4 -60.6509       5 -59.7526
       6 -74.4063
 
 
 
 E-fermi :  -6.3044     XC(G=0):  -0.0898     alpha+bet : -0.0137


 k-point     1 :       0.2500    0.2500    0.2500
  band No.  band energies     occupation 
      1     -23.9429      2.00000
      2     -17.9235      2.00000
      3     -12.3304      2.00000
      4     -11.6115      2.00000
      5     -10.9312      2.00000
      6      -9.4635      2.00000
      7      -8.3891      2.00000
      8      -7.2761      2.00000
      9      -2.5007      0.00000
     10      -0.7784      0.00000
     11      -0.4611      0.00000
     12      -0.0213      0.00000

 k-point     2 :      -0.2500    0.2500    0.2500
  band No.  band energies     occupation 
      1     -23.9429      2.00000
      2     -17.9235      2.00000
      3     -12.3304      2.00000
      4     -11.6115      2.00000
      5     -10.9312      2.00000
      6      -9.4635      2.00000
      7      -8.3891      2.00000
      8      -7.2761      2.00000
      9      -2.5007      0.00000
     10      -0.7784      0.00000
     11      -0.4611      0.00000
     12      -0.0253      0.00000

 k-point     3 :       0.2500   -0.2500    0.2500
  band No.  band energies     occupation 
      1     -23.9429      2.00000
      2     -17.9235      2.00000
      3     -12.3304      2.00000
      4     -11.6115      2.00000
      5     -10.9312      2.00000
      6      -9.4635      2.00000
      7      -8.3891      2.00000
      8      -7.2762      2.00000
      9      -2.5007      0.00000
     10      -0.7784      0.00000
     11      -0.4612      0.00000
     12      -0.0229      0.00000

 k-point     4 :      -0.2500   -0.2500    0.2500
  band No.  band energies     occupation 
      1     -23.9429      2.00000
      2     -17.9235      2.00000
      3     -12.3304      2.00000
      4     -11.6115      2.00000
      5     -10.9312      2.00000
      6      -9.4635      2.00000
      7      -8.3891      2.00000
      8      -7.2762      2.00000
      9      -2.5007      0.00000
     10      -0.7784      0.00000
     11      -0.4612      0.00000
     12      -0.0230      0.00000


--------------------------------------------------------------------------------------------------------


 soft charge-density along one line, spin component           1
         0         1         2         3         4         5         6         7         8         9
 total charge-density along one line
 
 pseudopotential strength for first ion, spin component:           1
 -2.363  -4.076  -0.002   0.000  -0.001
 -4.076  -6.945  -0.005   0.001  -0.002
 -0.002  -0.005  -0.329  -0.001   0.002
  0.000   0.001  -0.001  -0.333   0.000
 -0.001  -0.002   0.002   0.000  -0.333
 total augmentation occupancy for first ion, spin component:           1
  3.550  -0.642   0.419  -0.103   0.158
 -0.642   0.133  -0.077   0.019  -0.030
  0.419  -0.077   0.051  -0.010   0.016
 -0.103   0.019  -0.010   0.011  -0.004
  0.158  -0.030   0.016  -0.004   0.014


------------------------ aborting loop because EDIFF is reached ----------------------------------------


    CHARGE:  cpu time    6.0161: real time    6.0287
    FORLOC:  cpu time    2.4236: real time    2.4281
    FORNL :  cpu time   17.8503: real time   17.8869
    STRESS:  cpu time   51.9491: real time   52.0529
    FORCOR:  cpu time   17.5433: real time   17.5741
    FORHAR:  cpu time    5.9891: real time    6.0009
    MIXING:  cpu time    1.0938: real time    1.0959
    OFIELD:  cpu time    0.0000: real time    0.0000

  FORCE on cell =-STRESS in cart. coord.  units (eV):
  Direction    XX          YY          ZZ          XY          YZ          ZX
  --------------------------------------------------------------------------------------
  Alpha Z     0.04144     0.04144     0.04144
  Ewald     337.28066   156.97682   204.56553    16.57018   133.38701    40.82165
  Hartree   487.22026   334.64437   355.03290    10.54174    54.87579    26.77925
  E(xc)     -59.18188   -59.22113   -59.06820     0.01141     0.45502     0.04766
  Local    -984.46067  -658.14772  -723.10419   -26.96832  -179.66944   -66.46006
  n-local   -15.69592   -24.65959   -25.92723    -0.27330    -3.93286     0.05966
  augment     0.16662     0.74439     0.76871     0.03144     0.06594     0.00438
  Kinetic   233.78874   248.68107   246.82071     0.62545    -5.17364    -0.60339
  Fock        0.00000     0.00000     0.00000     0.00000     0.00000     0.00000
  -------------------------------------------------------------------------------------
  Total      -0.84076    -0.94035    -0.87033     0.53860     0.00782     0.64913
  in kB      -0.04989    -0.05580    -0.05165     0.03196     0.00046     0.03852
  external pressure =       -0.05 kB  Pullay stress =        0.00 kB


 VOLUME and BASIS-vectors are now :
 -----------------------------------------------------------------------------
  energy-cutoff  :      400.00
  volume of cell :    27000.00
      direct lattice vectors                 reciprocal lattice vectors
    30.000000000  0.000000000  0.000000000     0.033333333  0.000000000  0.000000000
     0.000000000 30.000000000  0.000000000     0.000000000  0.033333333  0.000000000
     0.000000000  0.000000000 30.000000000     0.000000000  0.000000000  0.033333333

  length of vectors
    30.000000000 30.000000000 30.000000000     0.033333333  0.033333333  0.033333333


 FORCES acting on ions
    electron-ion (+dipol)            ewald-force                    non-local-force                 convergence-correction
 -----------------------------------------------------------------------------------------------
   0.346E+02 0.556E+02 -.127E+02   -.367E+02 -.610E+02 0.140E+02   0.199E+01 0.537E+01 -.133E+01   -.350E-04 -.733E-04 0.346E-04
   0.299E+02 -.195E+02 0.564E+02   -.315E+02 0.213E+02 -.618E+02   0.152E+01 -.187E+01 0.535E+01   -.266E-04 0.414E-04 -.724E-04
   0.362E+02 -.391E+02 -.395E+02   -.377E+02 0.427E+02 0.433E+02   0.175E+01 -.373E+01 -.391E+01   -.126E-04 0.666E-04 0.725E-04
   0.970E+02 0.439E+01 0.119E+02   -.104E+03 -.468E+01 -.127E+02   0.742E+01 0.163E+00 0.628E+00   0.189E-03 0.122E-03 0.144E-03
   -.847E+02 0.136E+03 0.153E+03   0.908E+02 -.149E+03 -.169E+03   -.650E+01 0.135E+02 0.154E+02   0.616E-04 0.361E-03 0.422E-03
   -.112E+03 -.129E+03 -.159E+03   0.120E+03 0.151E+03 0.186E+03   -.699E+01 -.218E+02 -.261E+02   0.694E-04 -.970E-04 -.103E-03
 -----------------------------------------------------------------------------------------------
   0.809E+00 0.830E+01 0.997E+01   0.284E-13 0.000E+00 0.000E+00   -.803E+00 -.829E+01 -.997E+01   0.246E-03 0.421E-03 0.497E-03
 
 
 POSITION                                       TOTAL-FORCE (eV/Angst)
 -----------------------------------------------------------------------------------
     14.21563     13.97343     15.18543        -0.076235     -0.064718     -0.047369
     14.30112     15.31790     13.94505        -0.092330     -0.019688     -0.076329
     14.25624     15.69326     15.69769         0.207927     -0.075000     -0.061935
     14.58753     14.96790     14.93715        -0.058929     -0.127588     -0.161428
     16.25264     14.61606     14.64257        -0.439312      0.112696      0.133033
     16.32834     15.38928     15.55703         0.458880      0.174299      0.214028
 -----------------------------------------------------------------------------------
    total drift:                                0.006508      0.003082      0.007793


--------------------------------------------------------------------------------------------------------



  FREE ENERGIE OF THE ION-ELECTRON SYSTEM (eV)
  ---------------------------------------------------
  free  energy   TOTEN  =       -33.99500869 eV

  energy  without entropy=      -33.99500869  energy(sigma->0) =      -33.99500869
 


--------------------------------------------------------------------------------------------------------


    POTLOK:  cpu time   15.5536: real time   15.5838


--------------------------------------------------------------------------------------------------------


 NEB: the previous image is higher in energy: F
 NEB: the next image is higher in energy    : F
 NEB: image is at an extrema
 NEB: diff energy (min, max):     0.002726    0.310305

 NEB: Tangent
 ----------------------------------------------
     -0.14788     -0.07486     -0.07200
     -0.16968     -0.03973     -0.09934
      0.28129     -0.08524     -0.06875
     -0.00805     -0.16800     -0.20193
     -0.52536      0.19173      0.20365
      0.57018      0.17572      0.23816

 NEB: forces: par spring, perp REAL, dneb     0.252179    0.107860    0.000000
 NEB: distance to prev, next image, angle between     0.247426    0.196990  163.729666
 NEB: projections on to tangent (spring, REAL)    -0.252179    0.789941

 stress matrix after NEB project (eV)
     -0.84076      0.53860      0.64913
      0.53860     -0.94035      0.00782
      0.64913      0.00782     -0.87033
  FORCES: max atom, RMS     0.481970    0.325484
  FORCE total and by dimension    0.797270    0.441931
  Stress total and by dimension    1.942075    0.940348
 
 OPT: Flag T
 OPT: FIRE Step
 OPT: FIRE, TIMESTEP      0.10000
 OPT: FIRE, alpha         0.10000


--------------------------------------------------------------------------------------------------------


    WAVPRE:  cpu time    7.4559: real time    7.4722
 FEWALD executed in parallel
    FEWALD:  cpu time    0.0000: real time    0.0003
    ORTHCH:  cpu time    5.9401: real time    5.9538
     LOOP+:  cpu time 2808.5760: real time 2814.9030


----------------------------------------- Iteration    2(   1)  ---------------------------------------


    POTLOK:  cpu time   21.6147: real time   21.6647
    SETDIJ:  cpu time    0.0060: real time    0.0066
     EDDAV:  cpu time   69.9774: real time   70.1397
       DOS:  cpu time    0.0000: real time    0.0002
    CHARGE:  cpu time    5.9551: real time    5.9689
    MIXING:  cpu time    0.5789: real time    0.5797
    --------------------------------------------
      LOOP:  cpu time   98.1341: real time   98.3630

 eigenvalue-minimisations  :    96
 total energy-change (2. order) : 0.5850599E-02  (-0.1234557E-01)
 number of electron      16.0000007 magnetization 
 augmentation part        0.3796120 magnetization 

 Broyden mixing:
  rms(total) = 0.10857E-01    rms(broyden)= 0.10653E-01
  rms(prec ) = 0.10854E-01
  weight for this iteration     100.00

 Free energy of the ion-electron system (eV)
  ---------------------------------------------------
  alpha Z        PSCENC =         0.04144063
  Ewald energy   TEWEN  =       698.86940902
  -Hartree energ DENC   =     -1176.98361232
  -exchange      EXHF   =         0.00000000
  -V(xc)+E(xc)   XCENC  =        54.31293048
  PAW double counting   =      1176.10906159    -1178.81350428
  entropy T*S    EENTRO =         0.00000000
  eigenvalues    EBANDS =      -203.69015354
  atomic energy  EATOM  =       596.16534815
  Solvation  Ediel_sol  =         0.00000000
  ---------------------------------------------------
  free energy    TOTEN  =       -33.98908027 eV

  energy without entropy =      -33.98908027  energy(sigma->0) =      -33.98908027


--------------------------------------------------------------------------------------------------------




----------------------------------------- Iteration    2(   2)  ---------------------------------------


    POTLOK:  cpu time   19.2371: real time   19.2809
    SETDIJ:  cpu time    0.0070: real time    0.0064
     EDDAV:  cpu time   88.8595: real time   89.0655
       DOS:  cpu time    0.0000: real time    0.0002
    CHARGE:  cpu time    6.2980: real time    6.3120
    MIXING:  cpu time    0.6229: real time    0.6241
    --------------------------------------------
      LOOP:  cpu time  115.0265: real time  115.2939

 eigenvalue-minimisations  :   128
 total energy-change (2. order) : 0.5943014E-04  (-0.1881926E-03)
 number of electron      16.0000007 magnetization 
 augmentation part        0.3796159 magnetization 

 Broyden mixing:
  rms(total) = 0.68553E-02    rms(broyden)= 0.68382E-02
  rms(prec ) = 0.69416E-02
  weight for this iteration     100.00

 eigenvalues of (default mixing * dielectric matrix)
  average eigenvalue GAMMA=   1.7037
  1.7037

 Free energy of the ion-electron system (eV)
  ---------------------------------------------------
  alpha Z        PSCENC =         0.04144063
  Ewald energy   TEWEN  =       698.86940902
  -Hartree energ DENC   =     -1176.95305734
  -exchange      EXHF   =         0.00000000
  -V(xc)+E(xc)   XCENC  =        54.31293759
  PAW double counting   =      1175.87531541    -1178.57923749
  entropy T*S    EENTRO =         0.00000000
  eigenvalues    EBANDS =      -203.72117681
  atomic energy  EATOM  =       596.16534815
  Solvation  Ediel_sol  =         0.00000000
  ---------------------------------------------------
  free energy    TOTEN  =       -33.98902084 eV

  energy without entropy =      -33.98902084  energy(sigma->0) =      -33.98902084


--------------------------------------------------------------------------------------------------------




----------------------------------------- Iteration    2(   3)  ---------------------------------------


    POTLOK:  cpu time   19.4131: real time   19.4570
    SETDIJ:  cpu time    0.0070: real time    0.0064
     EDDAV:  cpu time   72.4300: real time   72.5966
       DOS:  cpu time    0.0000: real time    0.0002
    CHARGE:  cpu time    6.7340: real time    6.7495
    MIXING:  cpu time    0.7659: real time    0.7668
    --------------------------------------------
      LOOP:  cpu time   99.3509: real time   99.5987

 eigenvalue-minimisations  :    96
 total energy-change (2. order) :-0.9158974E-04  (-0.9204986E-05)
 number of electron      16.0000007 magnetization 
 augmentation part        0.3797948 magnetization 

 Broyden mixing:
  rms(total) = 0.21307E-02    rms(broyden)= 0.21278E-02
  rms(prec ) = 0.21673E-02
  weight for this iteration     100.00

 eigenvalues of (default mixing * dielectric matrix)
  average eigenvalue GAMMA=   1.5885
  0.9285  2.2486

 Free energy of the ion-electron system (eV)
  ---------------------------------------------------
  alpha Z        PSCENC =         0.04144063
  Ewald energy   TEWEN  =       698.86940902
  -Hartree energ DENC   =     -1176.91516905
  -exchange      EXHF   =         0.00000000
  -V(xc)+E(xc)   XCENC  =        54.31160771
  PAW double counting   =      1175.28682405    -1177.99050194
  entropy T*S    EENTRO =         0.00000000
  eigenvalues    EBANDS =      -203.75807101
  atomic energy  EATOM  =       596.16534815
  Solvation  Ediel_sol  =         0.00000000
  ---------------------------------------------------
  free energy    TOTEN  =       -33.98911243 eV

  energy without entropy =      -33.98911243  energy(sigma->0) =      -33.98911243


--------------------------------------------------------------------------------------------------------




----------------------------------------- Iteration    2(   4)  ---------------------------------------


    POTLOK:  cpu time   20.6789: real time   20.7250
    SETDIJ:  cpu time    0.0060: real time    0.0064
[...]
  ---------------------------------------------------
  free energy    TOTEN  =       -33.95297885 eV

  energy without entropy =      -33.95297885  energy(sigma->0) =      -33.95297885


--------------------------------------------------------------------------------------------------------




----------------------------------------- Iteration   28(   2)  ---------------------------------------


    POTLOK:  cpu time   20.6289: real time   20.6748
    SETDIJ:  cpu time    0.0060: real time    0.0064
     EDDAV:  cpu time   37.2753: real time   37.3595
       DOS:  cpu time    0.0000: real time    0.0002
    CHARGE:  cpu time    5.5502: real time    5.5636
    MIXING:  cpu time    0.7309: real time    0.7332
    --------------------------------------------
      LOOP:  cpu time   64.1932: real time   64.3423

 eigenvalue-minimisations  :    48
 total energy-change (2. order) : 0.1440877E-06  (-0.2726432E-06)
 number of electron      16.0000002 magnetization 
 augmentation part        0.3745147 magnetization 

 Broyden mixing:
  rms(total) = 0.24712E-03    rms(broyden)= 0.24657E-03
  rms(prec ) = 0.25103E-03
  weight for this iteration     100.00

 eigenvalues of (default mixing * dielectric matrix)
  average eigenvalue GAMMA=   1.7804
  1.7804

 Free energy of the ion-electron system (eV)
  ---------------------------------------------------
  alpha Z        PSCENC =         0.04144063
  Ewald energy   TEWEN  =       702.07537755
  -Hartree energ DENC   =     -1179.80557827
  -exchange      EXHF   =         0.00000000
  -V(xc)+E(xc)   XCENC  =        54.29530176
  PAW double counting   =      1162.18512135    -1164.88258570
  entropy T*S    EENTRO =         0.00000000
  eigenvalues    EBANDS =      -204.02740418
  atomic energy  EATOM  =       596.16534815
  Solvation  Ediel_sol  =         0.00000000
  ---------------------------------------------------
  free energy    TOTEN  =       -33.95297871 eV

  energy without entropy =      -33.95297871  energy(sigma->0) =      -33.95297871


--------------------------------------------------------------------------------------------------------




----------------------------------------- Iteration   28(   3)  ---------------------------------------


    POTLOK:  cpu time   21.6897: real time   21.7390
    SETDIJ:  cpu time    0.0060: real time    0.0063
     EDDAV:  cpu time   42.9945: real time   43.0936
       DOS:  cpu time    0.0000: real time    0.0002
    CHARGE:  cpu time    5.4992: real time    5.5114
    MIXING:  cpu time    0.6519: real time    0.6532
    --------------------------------------------
      LOOP:  cpu time   70.8432: real time   71.0081

 eigenvalue-minimisations  :    48
 total energy-change (2. order) :-0.1398831E-06  (-0.5490069E-07)
 number of electron      16.0000002 magnetization 
 augmentation part        0.3745106 magnetization 

 Broyden mixing:
  rms(total) = 0.75733E-04    rms(broyden)= 0.75570E-04
  rms(prec ) = 0.77033E-04
  weight for this iteration     100.00

 eigenvalues of (default mixing * dielectric matrix)
  average eigenvalue GAMMA=   1.5505
  1.1065  1.9944

 Free energy of the ion-electron system (eV)
  ---------------------------------------------------
  alpha Z        PSCENC =         0.04144063
  Ewald energy   TEWEN  =       702.07537755
  -Hartree energ DENC   =     -1179.80708416
  -exchange      EXHF   =         0.00000000
  -V(xc)+E(xc)   XCENC  =        54.29540330
  PAW double counting   =      1162.22874812    -1164.92625643
  entropy T*S    EENTRO =         0.00000000
  eigenvalues    EBANDS =      -204.02595601
  atomic energy  EATOM  =       596.16534815
  Solvation  Ediel_sol  =         0.00000000
  ---------------------------------------------------
  free energy    TOTEN  =       -33.95297885 eV

  energy without entropy =      -33.95297885  energy(sigma->0) =      -33.95297885


--------------------------------------------------------------------------------------------------------




----------------------------------------- Iteration   28(   4)  ---------------------------------------


    POTLOK:  cpu time   20.3119: real time   20.3569
    SETDIJ:  cpu time    0.0060: real time    0.0064
     EDDAV:  cpu time   39.4620: real time   39.5522
       DOS:  cpu time    0.0000: real time    0.0002
    CHARGE:  cpu time    5.9261: real time    5.9396
    MIXING:  cpu time    0.7119: real time    0.7147
    --------------------------------------------
      LOOP:  cpu time   66.4209: real time   66.5741

 eigenvalue-minimisations  :    48
 total energy-change (2. order) :-0.3402909E-07  (-0.1285645E-07)
 number of electron      16.0000002 magnetization 
 augmentation part        0.3745117 magnetization 

 Broyden mixing:
  rms(total) = 0.39634E-04    rms(broyden)= 0.39618E-04
  rms(prec ) = 0.40381E-04
  weight for this iteration     100.00

 eigenvalues of (default mixing * dielectric matrix)
  average eigenvalue GAMMA=   1.6203
  2.4189  1.2211  1.2211

 Free energy of the ion-electron system (eV)
  ---------------------------------------------------
  alpha Z        PSCENC =         0.04144063
  Ewald energy   TEWEN  =       702.07537755
  -Hartree energ DENC   =     -1179.80735236
  -exchange      EXHF   =         0.00000000
  -V(xc)+E(xc)   XCENC  =        54.29540745
  PAW double counting   =      1162.24463762    -1164.94215082
  entropy T*S    EENTRO =         0.00000000
  eigenvalues    EBANDS =      -204.02568709
  atomic energy  EATOM  =       596.16534815
  Solvation  Ediel_sol  =         0.00000000
  ---------------------------------------------------
  free energy    TOTEN  =       -33.95297888 eV

  energy without entropy =      -33.95297888  energy(sigma->0) =      -33.95297888


--------------------------------------------------------------------------------------------------------




----------------------------------------- Iteration   28(   5)  ---------------------------------------


    POTLOK:  cpu time   20.7658: real time   20.8122
    SETDIJ:  cpu time    0.0060: real time    0.0065
     EDDAV:  cpu time   42.1826: real time   42.2793
       DOS:  cpu time    0.0000: real time    0.0002
    CHARGE:  cpu time    6.1071: real time    6.1223
    MIXING:  cpu time    0.7829: real time    0.7850
    --------------------------------------------
      LOOP:  cpu time   69.8454: real time   70.0105

 eigenvalue-minimisations  :    48
 total energy-change (2. order) :-0.1157059E-07  (-0.3891251E-08)
 number of electron      16.0000002 magnetization 
 augmentation part        0.3745120 magnetization 

 Broyden mixing:
  rms(total) = 0.11696E-04    rms(broyden)= 0.11682E-04
  rms(prec ) = 0.12028E-04
  weight for this iteration     100.00

 eigenvalues of (default mixing * dielectric matrix)
  average eigenvalue GAMMA=   1.5694
  2.5130  0.9578  1.4033  1.4033

 Free energy of the ion-electron system (eV)
  ---------------------------------------------------
  alpha Z        PSCENC =         0.04144063
  Ewald energy   TEWEN  =       702.07537755
  -Hartree energ DENC   =     -1179.80745855
  -exchange      EXHF   =         0.00000000
  -V(xc)+E(xc)   XCENC  =        54.29540723
  PAW double counting   =      1162.25865078    -1164.95616852
  entropy T*S    EENTRO =         0.00000000
  eigenvalues    EBANDS =      -204.02557617
  atomic energy  EATOM  =       596.16534815
  Solvation  Ediel_sol  =         0.00000000
  ---------------------------------------------------
  free energy    TOTEN  =       -33.95297889 eV

  energy without entropy =      -33.95297889  energy(sigma->0) =      -33.95297889


--------------------------------------------------------------------------------------------------------




----------------------------------------- Iteration   28(   6)  ---------------------------------------


    POTLOK:  cpu time   21.9037: real time   21.9538
    SETDIJ:  cpu time    0.0070: real time    0.0064
     EDDAV:  cpu time   38.2002: real time   38.2877
       DOS:  cpu time    0.0000: real time    0.0002
    --------------------------------------------
      LOOP:  cpu time   60.1139: real time   60.2990

 eigenvalue-minimisations  :    48
 total energy-change (2. order) :-0.7375320E-08  (-0.2505126E-08)
 number of electron      16.0000002 magnetization 
 augmentation part        0.3745120 magnetization 

 Free energy of the ion-electron system (eV)
  ---------------------------------------------------
  alpha Z        PSCENC =         0.04144063
  Ewald energy   TEWEN  =       702.07537755
  -Hartree energ DENC   =     -1179.80740583
  -exchange      EXHF   =         0.00000000
  -V(xc)+E(xc)   XCENC  =        54.29540409
  PAW double counting   =      1162.26142115    -1164.95893957
  entropy T*S    EENTRO =         0.00000000
  eigenvalues    EBANDS =      -204.02562506
  atomic energy  EATOM  =       596.16534815
  Solvation  Ediel_sol  =         0.00000000
  ---------------------------------------------------
  free energy    TOTEN  =       -33.95297890 eV

  energy without entropy =      -33.95297890  energy(sigma->0) =      -33.95297890


--------------------------------------------------------------------------------------------------------




 average (electrostatic) potential at core
  the test charge radii are     0.5201  0.6991  0.7089
  (the norm of the test charge is              1.0000)
       1 -43.1635       2 -43.1779       3 -43.2400       4 -60.7412       5 -59.8188
       6 -74.3732
 
 
 
 E-fermi :  -6.2948     XC(G=0):  -0.0609     alpha+bet : -0.0137


 k-point     1 :       0.2500    0.2500    0.2500
  band No.  band energies     occupation 
      1     -24.0854      2.00000
      2     -17.8597      2.00000
      3     -12.4989      2.00000
      4     -11.6614      2.00000
      5     -10.8781      2.00000
      6      -9.4410      2.00000
      7      -8.3398      2.00000
      8      -7.2487      2.00000
      9      -1.7453      0.00000
     10      -0.8949      0.00000
     11      -0.6903      0.00000
     12      -0.2119      0.00000

 k-point     2 :      -0.2500    0.2500    0.2500
  band No.  band energies     occupation 
      1     -24.0854      2.00000
      2     -17.8597      2.00000
      3     -12.4989      2.00000
      4     -11.6614      2.00000
      5     -10.8781      2.00000
      6      -9.4410      2.00000
      7      -8.3398      2.00000
      8      -7.2487      2.00000
      9      -1.7453      0.00000
     10      -0.8949      0.00000
     11      -0.6904      0.00000
     12      -0.2119      0.00000

 k-point     3 :       0.2500   -0.2500    0.2500
  band No.  band energies     occupation 
      1     -24.0854      2.00000
      2     -17.8597      2.00000
      3     -12.4989      2.00000
      4     -11.6614      2.00000
      5     -10.8781      2.00000
      6      -9.4410      2.00000
      7      -8.3398      2.00000
      8      -7.2487      2.00000
      9      -1.7453      0.00000
     10      -0.8949      0.00000
     11      -0.6904      0.00000
     12      -0.2118      0.00000

 k-point     4 :      -0.2500   -0.2500    0.2500
  band No.  band energies     occupation 
      1     -24.0854      2.00000
      2     -17.8597      2.00000
      3     -12.4989      2.00000
      4     -11.6614      2.00000
      5     -10.8781      2.00000
      6      -9.4410      2.00000
      7      -8.3398      2.00000
      8      -7.2487      2.00000
      9      -1.7453      0.00000
     10      -0.8949      0.00000
     11      -0.6904      0.00000
     12      -0.2118      0.00000


--------------------------------------------------------------------------------------------------------


 soft charge-density along one line, spin component           1
         0         1         2         3         4         5         6         7         8         9
 total charge-density along one line
 
 pseudopotential strength for first ion, spin component:           1
 -2.364  -4.077  -0.002   0.000  -0.001
 -4.077  -6.946  -0.005   0.001  -0.002
 -0.002  -0.005  -0.329  -0.001   0.002
  0.000   0.001  -0.001  -0.333   0.000
 -0.001  -0.002   0.002   0.000  -0.333
 total augmentation occupancy for first ion, spin component:           1
  3.550  -0.643   0.423  -0.097   0.150
 -0.643   0.133  -0.078   0.018  -0.028
  0.423  -0.078   0.052  -0.010   0.015
 -0.097   0.018  -0.010   0.011  -0.004
  0.150  -0.028   0.015  -0.004   0.013


------------------------ aborting loop because EDIFF is reached ----------------------------------------


    CHARGE:  cpu time    5.6731: real time    5.6871
    FORLOC:  cpu time    2.4146: real time    2.4201
    FORNL :  cpu time   18.5042: real time   18.5474
    STRESS:  cpu time   57.1433: real time   57.2746
    FORCOR:  cpu time   20.3739: real time   20.4176
    FORHAR:  cpu time    7.1059: real time    7.1220
    MIXING:  cpu time    0.8849: real time    0.8858
    OFIELD:  cpu time    0.0000: real time    0.0001

  FORCE on cell =-STRESS in cart. coord.  units (eV):
  Direction    XX          YY          ZZ          XY          YZ          ZX
  --------------------------------------------------------------------------------------
  Alpha Z     0.04144     0.04144     0.04144
  Ewald     338.64396   160.96263   202.46881    -2.16011   134.71256    18.73038
  Hartree   487.10527   337.40537   355.29678     1.96760    55.56051    16.46758
  E(xc)     -59.13974   -59.18639   -59.05299    -0.04198     0.45926    -0.01373
  Local    -985.19629  -665.17742  -721.98098    -0.35426  -181.70309   -34.80302
  n-local   -15.18861   -24.21903   -25.30421     0.38981    -3.96258     0.83273
  augment     0.23338     0.79166     0.80836    -0.01312     0.06661    -0.04692
  Kinetic   232.60014   248.40697   246.73604     0.20246    -5.14576    -1.16823
  Fock        0.00000     0.00000     0.00000     0.00000     0.00000     0.00000
  -------------------------------------------------------------------------------------
  Total      -0.90046    -0.97477    -0.98675    -0.00960    -0.01249    -0.00121
  in kB      -0.05343    -0.05784    -0.05855    -0.00057    -0.00074    -0.00007
  external pressure =       -0.06 kB  Pullay stress =        0.00 kB


 VOLUME and BASIS-vectors are now :
 -----------------------------------------------------------------------------
  energy-cutoff  :      400.00
  volume of cell :    27000.00
      direct lattice vectors                 reciprocal lattice vectors
    30.000000000  0.000000000  0.000000000     0.033333333  0.000000000  0.000000000
     0.000000000 30.000000000  0.000000000     0.000000000  0.033333333  0.000000000
     0.000000000  0.000000000 30.000000000     0.000000000  0.000000000  0.033333333

  length of vectors
    30.000000000 30.000000000 30.000000000     0.033333333  0.033333333  0.033333333


 FORCES acting on ions
    electron-ion (+dipol)            ewald-force                    non-local-force                 convergence-correction
 -----------------------------------------------------------------------------------------------
   0.342E+02 0.563E+02 -.121E+02   -.361E+02 -.617E+02 0.134E+02   0.190E+01 0.542E+01 -.124E+01   -.882E-05 0.102E-04 -.613E-05
   0.293E+02 -.191E+02 0.571E+02   -.307E+02 0.209E+02 -.625E+02   0.142E+01 -.180E+01 0.540E+01   -.982E-05 -.905E-05 0.701E-05
   0.377E+02 -.391E+02 -.394E+02   -.396E+02 0.428E+02 0.433E+02   0.188E+01 -.377E+01 -.394E+01   -.798E-05 -.134E-04 -.119E-04
   0.997E+02 0.490E+01 0.125E+02   -.107E+03 -.527E+01 -.134E+02   0.766E+01 0.371E+00 0.886E+00   -.592E-04 -.282E-05 -.180E-04
   -.980E+02 0.135E+03 0.150E+03   0.106E+03 -.149E+03 -.166E+03   -.765E+01 0.142E+02 0.158E+02   -.655E-04 -.200E-05 0.246E-05
   -.101E+03 -.130E+03 -.158E+03   0.108E+03 0.153E+03 0.185E+03   -.731E+01 -.224E+02 -.266E+02   -.759E-04 -.331E-04 -.730E-04
 -----------------------------------------------------------------------------------------------
   0.209E+01 0.803E+01 0.963E+01   0.284E-13 -.284E-13 -.284E-13   -.209E+01 -.803E+01 -.962E+01   -.227E-03 -.501E-04 -.996E-04
 
 
 POSITION                                       TOTAL-FORCE (eV/Angst)
 -----------------------------------------------------------------------------------
     14.23724     13.97951     15.19338        -0.001294     -0.003307     -0.002897
     14.32575     15.32509     13.95505        -0.000502      0.002013     -0.003004
     14.23021     15.70198     15.70698        -0.003797     -0.000613      0.003019
     14.59054     14.98584     14.95900         0.006036     -0.000066     -0.000184
     16.30701     14.58822     14.61936         0.000692     -0.000165      0.009995
     16.25067     15.37724     15.53123        -0.001135      0.002139     -0.006929
 -----------------------------------------------------------------------------------
    total drift:                               -0.004498      0.003814      0.008322


--------------------------------------------------------------------------------------------------------



  FREE ENERGIE OF THE ION-ELECTRON SYSTEM (eV)
  ---------------------------------------------------
  free  energy   TOTEN  =       -33.95297890 eV

  energy  without entropy=      -33.95297890  energy(sigma->0) =      -33.95297890
 
 d Force = 0.4538397E-05[ 0.387E-05, 0.521E-05]  d Energy = 0.4535799E-05 0.260E-08
 d Force = 0.7179446E-02[ 0.719E-02, 0.717E-02]  d Ewald  = 0.7179445E-02 0.993E-09


--------------------------------------------------------------------------------------------------------


    POTLOK:  cpu time   21.3378: real time   21.3851


--------------------------------------------------------------------------------------------------------


 NEB: the previous image is higher in energy: F
 NEB: the next image is higher in energy    : F
 NEB: image is at an extrema
 NEB: diff energy (min, max):     0.091696    0.283949

 NEB: Tangent
 ----------------------------------------------
     -0.11827     -0.08353     -0.06866
     -0.13305     -0.03656     -0.10404
      0.27675     -0.08793     -0.07350
     -0.00970     -0.16946     -0.20077
     -0.56159      0.19042      0.19968
      0.54585      0.18705      0.24729

 NEB: forces: par spring, perp REAL, dneb     0.471224    0.015766    0.000000
 NEB: distance to prev, next image, angle between     0.189773    0.284018  158.216835
 NEB: projections on to tangent (spring, REAL)     0.471224   -0.000652

 stress matrix after NEB project (eV)
     -0.90046     -0.00960     -0.00121
     -0.00960     -0.97477     -0.01249
     -0.00121     -0.01249     -0.98675
  FORCES: max atom, RMS     0.010256    0.006442
  FORCE total and by dimension    0.015779    0.010256
  Stress total and by dimension    1.653838    0.986748
 OPT: skip step - force has converged


--------------------------------------------------------------------------------------------------------


  
 reached required accuracy - stopping structural energy minimisation
     LOOP+:  cpu time  739.1846: real time  740.8371
    4ORBIT:  cpu time    0.0000: real time    0.0000

 total amount of memory used by VASP on root node  3203888. kBytes
========================================================================

   base      :      30000. kBytes
   nonlr-proj:        692. kBytes
   fftplans  :     924480. kBytes
   grid      :    1872000. kBytes
   one-center:         18. kBytes
   wavefun   :     376698. kBytes
 
  
  
 General timing and accounting informations for this job:
 ========================================================
  
                  Total CPU time used (sec):    22540.500
                            User time (sec):    22244.790
                          System time (sec):      295.710
                         Elapsed time (sec):    22605.952
  
                   Maximum memory used (kb):     4760708.
                   Average memory used (kb):           0.
  
                          Minor page faults:      2456175
                          Major page faults:            9
                 Voluntary context switches:         3817
