unknown system                          
           1
    30.000000    0.000000    0.000000
     0.000000   30.000000    0.000000
     0.000000    0.000000   30.000000
   H    C    N 
   3   2   1
Direct configuration=     1
   0.47390680  0.46579891  0.50620327
   0.47676272  0.51061105  0.46486189
   0.47512915  0.52312842  0.52327191
   0.48623561  0.49897598  0.49795760
   0.54188493  0.48713860  0.48802288
   0.54413068  0.51294147  0.51851361
Direct configuration=     2
   0.47400580  0.46583073  0.50624615
   0.47687359  0.51063991  0.46491005
   0.47497910  0.52317028  0.52330601
   0.48621664  0.49906234  0.49805904
   0.54213385  0.48701023  0.48789400
   0.54384047  0.51288124  0.51841615
Direct configuration=     3
   0.47413943  0.46586976  0.50630640
   0.47702402  0.51068237  0.46497038
   0.47477469  0.52323522  0.52336147
   0.48621270  0.49917966  0.49820112
   0.54247910  0.48683153  0.48771496
   0.54341903  0.51279646  0.51827747
Direct configuration=     4
   0.47429447  0.46591044  0.50637815
   0.47719959  0.51073495  0.46503569
   0.47454226  0.52331914  0.52343629
   0.48623844  0.49931740  0.49837177
   0.54288870  0.48663346  0.48752110
   0.54288499  0.51267987  0.51808931
Direct configuration=     5
   0.47445996  0.46595379  0.50645336
   0.47738788  0.51079076  0.46510719
   0.47431256  0.52341009  0.52352074
   0.48629527  0.49946676  0.49855806
   0.54332835  0.48642587  0.48732270
   0.54226392  0.51254828  0.51787071
Direct configuration=     6
   0.47463114  0.46601363  0.50651997
   0.47758170  0.51083930  0.46519965
   0.47412770  0.52348419  0.52359417
   0.48636374  0.49961547  0.49874065
   0.54375663  0.48622377  0.48713830
   0.54158653  0.51241948  0.51764042
Direct configuration=     7
   0.47463114  0.46601482  0.50651887
   0.47758149  0.51083871  0.46520071
   0.47413171  0.52348214  0.52359264
   0.48636244  0.49961426  0.49873923
   0.54375322  0.48622704  0.48714299
   0.54158744  0.51241887  0.51763873
Direct configuration=     8
   0.47463101  0.46601699  0.50651667
   0.47758094  0.51083755  0.46520261
   0.47413970  0.52347812  0.52358963
   0.48635996  0.49961180  0.49873637
   0.54374644  0.48623254  0.48715108
   0.54158939  0.51241885  0.51763680
Direct configuration=     9
   0.47463054  0.46601978  0.50651342
   0.47757991  0.51083589  0.46520504
   0.47415143  0.52347237  0.52358543
   0.48635661  0.49960812  0.49873205
   0.54373651  0.48623828  0.48716022
   0.54159243  0.51242140  0.51763700
Direct configuration=    10
   0.47462950  0.46602264  0.50650930
   0.47757823  0.51083389  0.46520749
   0.47416630  0.52346545  0.52358051
   0.48635294  0.49960327  0.49872638
   0.54372394  0.48624254  0.48716829
   0.54159652  0.51242806  0.51764120
Direct configuration=    11
   0.47462769  0.46602487  0.50650452
   0.47757579  0.51083180  0.46520935
   0.47418364  0.52345793  0.52357550
   0.48634974  0.49959740  0.49871946
   0.54370904  0.48624497  0.48717488
   0.54160153  0.51243889  0.51764946
Direct configuration=    12
   0.47462478  0.46602568  0.50649925
   0.47757237  0.51082988  0.46520990
   0.47420304  0.52345036  0.52357097
   0.48634790  0.49959056  0.49871132
   0.54369179  0.48624691  0.48718165
   0.54160754  0.51245247  0.51766008
Direct configuration=    13
   0.47462004  0.46602420  0.50649308
   0.47756728  0.51082827  0.46520826
   0.47422611  0.52344255  0.52356715
   0.48634832  0.49958199  0.49870107
   0.54367022  0.48625128  0.48719277
   0.54161544  0.51246756  0.51767085
Direct configuration=    14
   0.47461312  0.46601959  0.50648613
   0.47756026  0.51082732  0.46520360
   0.47425237  0.52343500  0.52356463
   0.48635178  0.49957169  0.49868876
   0.54364441  0.48626028  0.48721109
   0.54162545  0.51248198  0.51767896
Direct configuration=    15
   0.47460358  0.46601095  0.50647832
   0.47755095  0.51082742  0.46519494
   0.47428166  0.52342804  0.52356401
   0.48635862  0.49955942  0.49867424
   0.54361458  0.48627279  0.48723609
   0.54163799  0.51249726  0.51768558
Direct configuration=    16
   0.47459160  0.46599857  0.50646942
   0.47753948  0.51082875  0.46518243
   0.47431347  0.52342135  0.52356523
   0.48636719  0.49954504  0.49865755
   0.54358239  0.48628163  0.48726028
   0.54165324  0.51252056  0.51769826
Direct configuration=    17
   0.47457809  0.46598453  0.50645893
   0.47752669  0.51083108  0.46516806
   0.47434702  0.52341338  0.52356691
   0.48637339  0.49952913  0.49863909
   0.54355034  0.48628455  0.48728247
   0.54167185  0.51255323  0.51771771
Direct configuration=    18
   0.47457810  0.46598470  0.50645871
   0.47752670  0.51083111  0.46516824
   0.47434703  0.52341301  0.52356673
   0.48637268  0.49952912  0.49863899
   0.54355060  0.48628527  0.48728395
   0.54167227  0.51255268  0.51771655
Direct configuration=    19
   0.47457811  0.46598503  0.50645826
   0.47752673  0.51083119  0.46516859
   0.47434703  0.52341227  0.52356638
   0.48637127  0.49952909  0.49863880
   0.54355116  0.48628643  0.48728660
   0.54167307  0.51255187  0.51771455
Direct configuration=    20
   0.47457812  0.46598549  0.50645756
   0.47752677  0.51083133  0.46516909
   0.47434698  0.52341118  0.52356588
   0.48636915  0.49952905  0.49863849
   0.54355209  0.48628748  0.48728984
   0.54167427  0.51255136  0.51771231
Direct configuration=    21
   0.47457809  0.46598600  0.50645664
   0.47752680  0.51083153  0.46516965
   0.47434685  0.52340980  0.52356532
   0.48636648  0.49952899  0.49863807
   0.54355339  0.48628774  0.48729288
   0.54167577  0.51255183  0.51771062
Direct configuration=    22
   0.47457800  0.46598646  0.50645554
   0.47752680  0.51083181  0.46517017
   0.47434660  0.52340828  0.52356480
   0.48636354  0.49952890  0.49863756
   0.54355499  0.48628691  0.48729523
   0.54167745  0.51255353  0.51770987
Direct configuration=    23
   0.47457782  0.46598678  0.50645431
   0.47752674  0.51083219  0.46517058
   0.47434619  0.52340670  0.52356439
   0.48636057  0.49952879  0.49863698
   0.54355682  0.48628504  0.48729686
   0.54167923  0.51255639  0.51771005
Direct configuration=    24
   0.47457747  0.46598685  0.50645280
   0.47752659  0.51083275  0.46517077
   0.47434550  0.52340498  0.52356416
   0.48635750  0.49952864  0.49863626
   0.54355903  0.48628208  0.48729826
   0.54168129  0.51256059  0.51771093
Direct configuration=    25
   0.47457682  0.46598642  0.50645090
   0.47752624  0.51083362  0.46517051
   0.47434433  0.52340314  0.52356432
   0.48635470  0.49952843  0.49863538
   0.54356161  0.48627862  0.48730054
   0.54168368  0.51256567  0.51771153
Direct configuration=    26
   0.47457586  0.46598540  0.50644863
   0.47752569  0.51083481  0.46516970
   0.47434265  0.52340127  0.52356493
   0.48635253  0.49952816  0.49863438
   0.54356435  0.48627574  0.48730494
   0.54168629  0.51257051  0.51771059
Direct configuration=    27
   0.47457457  0.46598373  0.50644593
   0.47752496  0.51083635  0.46516829
   0.47434040  0.52339936  0.52356607
   0.48635131  0.49952784  0.49863329
   0.54356712  0.48627384  0.48731204
   0.54168901  0.51257477  0.51770755
Direct configuration=    28
   0.47457457  0.46598373  0.50644593
   0.47752496  0.51083635  0.46516829
   0.47434040  0.52339936  0.52356607
   0.48635131  0.49952784  0.49863329
   0.54356712  0.48627384  0.48731204
   0.54168901  0.51257477  0.51770755
