  22  22   0   0
  0.1227273E+04  0.3000000E-08  0.3000000E-08  0.3000000E-08  0.0000000E+00
  1.000000000000000E-004
  CAR 
 unknown system                          
      2.19591546    -28.13853188  301     -4.47726797      1.00000000
    -28.139  0.0000E+00  0.0000E+00
    -28.037  0.0000E+00  0.0000E+00
    -27.936  0.0000E+00  0.0000E+00
    -27.835  0.0000E+00  0.0000E+00
    -27.734  0.0000E+00  0.0000E+00
    -27.633  0.0000E+00  0.0000E+00
    -27.532  0.0000E+00  0.0000E+00
    -27.431  0.0000E+00  0.0000E+00
    -27.330  0.0000E+00  0.0000E+00
    -27.228  0.4246E-15  0.4293E-16
    -27.127  0.8875E-13  0.9017E-14
    -27.026  0.1127E-10  0.1149E-11
    -26.925  0.8665E-09  0.8876E-10
    -26.824  0.4038E-07  0.4172E-08
    -26.723  0.1143E-05  0.1197E-06
    -26.622  0.1967E-04  0.2108E-05
    -26.521  0.2062E-03  0.2295E-04
    -26.420  0.1319E-02  0.1563E-03
    -26.318  0.5155E-02  0.6775E-03
    -26.217  0.1233E-01  0.1924E-02
    -26.116  0.1807E-01  0.3752E-02
    -26.015  0.1631E-01  0.5400E-02
    -25.914  0.9616E-02  0.6373E-02
    -25.813  0.6285E-02  0.7008E-02
    -25.712  0.1005E-01  0.8024E-02
    -25.611  0.1667E-01  0.9710E-02
    -25.510  0.1788E-01  0.1152E-01
    -25.408  0.1180E-01  0.1271E-01
    -25.307  0.4773E-02  0.1319E-01
    -25.206  0.1181E-02  0.1331E-01
    -25.105  0.1786E-03  0.1333E-01
    -25.004  0.1647E-04  0.1333E-01
    -24.903  0.9255E-06  0.1333E-01
    -24.802  0.3162E-07  0.1333E-01
    -24.701  0.6559E-09  0.1333E-01
    -24.600  0.8246E-11  0.1333E-01
    -24.498  0.6290E-13  0.1333E-01
    -24.397  0.3319E-13  0.1333E-01
    -24.296  0.4603E-11  0.1333E-01
    -24.195  0.3898E-09  0.1333E-01
    -24.094  0.2001E-07  0.1333E-01
    -23.993  0.6233E-06  0.1333E-01
    -23.892  0.1180E-04  0.1333E-01
    -23.791  0.1361E-03  0.1335E-01
    -23.689  0.9578E-03  0.1345E-01
    -23.588  0.4117E-02  0.1386E-01
    -23.487  0.1083E-01  0.1496E-01
    -23.386  0.1743E-01  0.1672E-01
    -23.285  0.1720E-01  0.1846E-01
    -23.184  0.1046E-01  0.1952E-01
    -23.083  0.4341E-02  0.1995E-01
    -22.982  0.3411E-02  0.2030E-01
    -22.881  0.8133E-02  0.2112E-01
    -22.779  0.1548E-01  0.2269E-01
    -22.678  0.1830E-01  0.2454E-01
    -22.577  0.1327E-01  0.2588E-01
    -22.476  0.5889E-02  0.2648E-01
    -22.375  0.1600E-02  0.2664E-01
    -22.274  0.2657E-03  0.2666E-01
    -22.173  0.2693E-04  0.2667E-01
    -22.072  0.1663E-05  0.2667E-01
    -21.971  0.6247E-07  0.2667E-01
    -21.869  0.1425E-08  0.2667E-01
    -21.768  0.1971E-10  0.2667E-01
    -21.667  0.1651E-12  0.2667E-01
    -21.566  0.8345E-15  0.2667E-01
    -21.465  0.0000E+00  0.2667E-01
    -21.364  0.0000E+00  0.2667E-01
    -21.263  0.0000E+00  0.2667E-01
    -21.162  0.0000E+00  0.2667E-01
    -21.060  0.0000E+00  0.2667E-01
    -20.959  0.0000E+00  0.2667E-01
    -20.858  0.0000E+00  0.2667E-01
    -20.757  0.0000E+00  0.2667E-01
    -20.656  0.2891E-15  0.2667E-01
    -20.555  0.6279E-13  0.2667E-01
    -20.454  0.8250E-11  0.2667E-01
    -20.353  0.6561E-09  0.2667E-01
    -20.252  0.3163E-07  0.2667E-01
    -20.150  0.9258E-06  0.2667E-01
    -20.049  0.1648E-04  0.2667E-01
    -19.948  0.1786E-03  0.2669E-01
    -19.847  0.1181E-02  0.2681E-01
    -19.746  0.4774E-02  0.2729E-01
    -19.645  0.1180E-01  0.2848E-01
    -19.544  0.1788E-01  0.3029E-01
    -19.443  0.1659E-01  0.3197E-01
    -19.342  0.9430E-02  0.3292E-01
    -19.240  0.3282E-02  0.3325E-01
    -19.139  0.6988E-03  0.3332E-01
    -19.038  0.9086E-04  0.3333E-01
    -18.937  0.7214E-05  0.3333E-01
    -18.836  0.6632E-06  0.3333E-01
    -18.735  0.6641E-05  0.3333E-01
    -18.634  0.8486E-04  0.3334E-01
    -18.533  0.6623E-03  0.3341E-01
    -18.432  0.3157E-02  0.3373E-01
    -18.330  0.9203E-02  0.3466E-01
    -18.229  0.1643E-01  0.3632E-01
    -18.128  0.1797E-01  0.3814E-01
    -18.027  0.1207E-01  0.3936E-01
    -17.926  0.5245E-02  0.3989E-01
    -17.825  0.3020E-02  0.4019E-01
    -17.724  0.6521E-02  0.4085E-01
    -17.623  0.1380E-01  0.4225E-01
    -17.521  0.1838E-01  0.4411E-01
    -17.420  0.1502E-01  0.4562E-01
    -17.319  0.7516E-02  0.4638E-01
    -17.218  0.2303E-02  0.4662E-01
    -17.117  0.4314E-03  0.4666E-01
    -17.016  0.4934E-04  0.4667E-01
    -16.915  0.3440E-05  0.4667E-01
    -16.814  0.1459E-06  0.4667E-01
    -16.713  0.3762E-08  0.4667E-01
    -16.611  0.1383E-09  0.4667E-01
    -16.510  0.4914E-08  0.4667E-01
    -16.409  0.1842E-06  0.4667E-01
    -16.308  0.4197E-05  0.4667E-01
    -16.207  0.5818E-04  0.4667E-01
    -16.106  0.4917E-03  0.4672E-01
    -16.005  0.2537E-02  0.4698E-01
    -15.904  0.8007E-02  0.4779E-01
    -15.803  0.1547E-01  0.4935E-01
    -15.701  0.1830E-01  0.5120E-01
    -15.600  0.1327E-01  0.5255E-01
    -15.499  0.5895E-02  0.5314E-01
    -15.398  0.1621E-02  0.5331E-01
    -15.297  0.4624E-03  0.5335E-01
    -15.196  0.1297E-02  0.5348E-01
    -15.095  0.5023E-02  0.5399E-01
    -14.994  0.1215E-01  0.5522E-01
    -14.892  0.1800E-01  0.5704E-01
    -14.791  0.1635E-01  0.5869E-01
    -14.690  0.9094E-02  0.5961E-01
    -14.589  0.3107E-02  0.5993E-01
    -14.488  0.7613E-03  0.6000E-01
    -14.387  0.9289E-03  0.6010E-01
    -14.286  0.3777E-02  0.6048E-01
    -14.185  0.1027E-01  0.6152E-01
    -14.084  0.1713E-01  0.6325E-01
    -13.982  0.1750E-01  0.6502E-01
    -13.881  0.1095E-01  0.6613E-01
    -13.780  0.4200E-02  0.6655E-01
    -13.679  0.9878E-03  0.6665E-01
    -13.578  0.1830E-03  0.6667E-01
    -13.477  0.3908E-03  0.6671E-01
    -13.376  0.2089E-02  0.6692E-01
    -13.275  0.7047E-02  0.6763E-01
    -13.174  0.1455E-01  0.6910E-01
    -13.072  0.1841E-01  0.7097E-01
    -12.971  0.1427E-01  0.7241E-01
    -12.870  0.6776E-02  0.7309E-01
    -12.769  0.1975E-02  0.7329E-01
    -12.668  0.4302E-03  0.7334E-01
    -12.567  0.6737E-03  0.7341E-01
    -12.466  0.3089E-02  0.7372E-01
    -12.365  0.9303E-02  0.7466E-01
    -12.264  0.1797E-01  0.7648E-01
    -12.162  0.2411E-01  0.7891E-01
    -12.061  0.2572E-01  0.8151E-01
    -11.960  0.2342E-01  0.8388E-01
    -11.859  0.1657E-01  0.8556E-01
    -11.758  0.8101E-02  0.8638E-01
    -11.657  0.3244E-02  0.8671E-01
    -11.556  0.4087E-02  0.8712E-01
    -11.455  0.1037E-01  0.8817E-01
    -11.353  0.1898E-01  0.9009E-01
    -11.252  0.2459E-01  0.9257E-01
    -11.151  0.2580E-01  0.9518E-01
    -11.050  0.2349E-01  0.9756E-01
    -10.949  0.1862E-01  0.9944E-01
    -10.848  0.1628E-01  0.1011E+00
    -10.747  0.1849E-01  0.1030E+00
    -10.646  0.1840E-01  0.1048E+00
    -10.545  0.1276E-01  0.1061E+00
    -10.443  0.8621E-02  0.1070E+00
    -10.342  0.1334E-01  0.1083E+00
    -10.241  0.2597E-01  0.1110E+00
    -10.140  0.3724E-01  0.1147E+00
    -10.039  0.3936E-01  0.1187E+00
     -9.938  0.3401E-01  0.1221E+00
     -9.837  0.2575E-01  0.1247E+00
     -9.736  0.1889E-01  0.1267E+00
     -9.635  0.1935E-01  0.1286E+00
     -9.533  0.2689E-01  0.1313E+00
     -9.432  0.3342E-01  0.1347E+00
     -9.331  0.3484E-01  0.1382E+00
     -9.230  0.3600E-01  0.1419E+00
     -9.129  0.3996E-01  0.1459E+00
     -9.028  0.4054E-01  0.1500E+00
     -8.927  0.3513E-01  0.1536E+00
     -8.826  0.2966E-01  0.1566E+00
     -8.724  0.2673E-01  0.1593E+00
     -8.623  0.2510E-01  0.1618E+00
     -8.522  0.2240E-01  0.1641E+00
     -8.421  0.1567E-01  0.1657E+00
     -8.320  0.7387E-02  0.1664E+00
     -8.219  0.2196E-02  0.1666E+00
     -8.118  0.4025E-03  0.1667E+00
     -8.017  0.4517E-04  0.1667E+00
     -7.916  0.3092E-05  0.1667E+00
     -7.814  0.1288E-06  0.1667E+00
     -7.713  0.3260E-08  0.1667E+00
     -7.612  0.1767E-09  0.1667E+00
     -7.511  0.7419E-08  0.1667E+00
     -7.410  0.2637E-06  0.1667E+00
     -7.309  0.5695E-05  0.1667E+00
     -7.208  0.7487E-04  0.1667E+00
     -7.107  0.6001E-03  0.1667E+00
     -7.006  0.2938E-02  0.1670E+00
     -6.904  0.8795E-02  0.1679E+00
     -6.803  0.1612E-01  0.1696E+00
     -6.702  0.1811E-01  0.1714E+00
     -6.601  0.1251E-01  0.1726E+00
     -6.500  0.5745E-02  0.1732E+00
     -6.399  0.3922E-02  0.1736E+00
     -6.298  0.8421E-02  0.1745E+00
     -6.197  0.1665E-01  0.1762E+00
     -6.096  0.2294E-01  0.1785E+00
     -5.994  0.2486E-01  0.1810E+00
     -5.893  0.2377E-01  0.1834E+00
     -5.792  0.1906E-01  0.1853E+00
     -5.691  0.1336E-01  0.1867E+00
     -5.590  0.1319E-01  0.1880E+00
     -5.489  0.1755E-01  0.1898E+00
     -5.388  0.1783E-01  0.1916E+00
     -5.287  0.1146E-01  0.1927E+00
     -5.185  0.4529E-02  0.1932E+00
     -5.084  0.1096E-02  0.1933E+00
     -4.983  0.1620E-03  0.1933E+00
     -4.882  0.1462E-04  0.1933E+00
     -4.781  0.8030E-06  0.1933E+00
     -4.680  0.2683E-07  0.1933E+00
     -4.579  0.5440E-09  0.1933E+00
     -4.478  0.6686E-11  0.1933E+00
     -4.377  0.4975E-13  0.1933E+00
     -4.275  0.2196E-15  0.1933E+00
     -4.174  0.0000E+00  0.1933E+00
     -4.073  0.0000E+00  0.1933E+00
     -3.972  0.0000E+00  0.1933E+00
     -3.871  0.0000E+00  0.1933E+00
     -3.770  0.0000E+00  0.1933E+00
     -3.669  0.0000E+00  0.1933E+00
     -3.568  0.0000E+00  0.1933E+00
     -3.467  0.0000E+00  0.1933E+00
     -3.365  0.0000E+00  0.1933E+00
     -3.264  0.0000E+00  0.1933E+00
     -3.163  0.0000E+00  0.1933E+00
     -3.062  0.0000E+00  0.1933E+00
     -2.961  0.0000E+00  0.1933E+00
     -2.860  0.0000E+00  0.1933E+00
     -2.759  0.0000E+00  0.1933E+00
     -2.658  0.0000E+00  0.1933E+00
     -2.556  0.0000E+00  0.1933E+00
     -2.455  0.0000E+00  0.1933E+00
     -2.354  0.0000E+00  0.1933E+00
     -2.253  0.0000E+00  0.1933E+00
     -2.152  0.4685E-15  0.1933E+00
     -2.051  0.9753E-13  0.1933E+00
     -1.950  0.1227E-10  0.1933E+00
     -1.849  0.9348E-09  0.1933E+00
     -1.748  0.4318E-07  0.1933E+00
     -1.646  0.1212E-05  0.1933E+00
     -1.545  0.2070E-04  0.1933E+00
     -1.444  0.2161E-03  0.1934E+00
     -1.343  0.1387E-02  0.1935E+00
     -1.242  0.5544E-02  0.1941E+00
     -1.141  0.1415E-01  0.1955E+00
     -1.040  0.2419E-01  0.1979E+00
     -0.939  0.2966E-01  0.2009E+00
     -0.838  0.2764E-01  0.2037E+00
     -0.736  0.2095E-01  0.2058E+00
     -0.635  0.1747E-01  0.2076E+00
     -0.534  0.2242E-01  0.2099E+00
     -0.433  0.3198E-01  0.2131E+00
     -0.332  0.4077E-01  0.2172E+00
     -0.231  0.4828E-01  0.2221E+00
     -0.130  0.5793E-01  0.2280E+00
     -0.029  0.7627E-01  0.2357E+00
      0.073  0.1021E+00  0.2460E+00
      0.174  0.1133E+00  0.2575E+00
      0.275  0.8968E-01  0.2665E+00
      0.376  0.4720E-01  0.2713E+00
      0.477  0.1602E-01  0.2729E+00
      0.578  0.3453E-02  0.2733E+00
      0.679  0.4681E-03  0.2733E+00
      0.780  0.3962E-04  0.2733E+00
      0.881  0.2081E-05  0.2733E+00
      0.983  0.6747E-07  0.2733E+00
      1.084  0.1345E-08  0.2733E+00
      1.185  0.1640E-10  0.2733E+00
      1.286  0.1221E-12  0.2733E+00
      1.387  0.5545E-15  0.2733E+00
      1.488  0.0000E+00  0.2733E+00
      1.589  0.0000E+00  0.2733E+00
      1.690  0.0000E+00  0.2733E+00
      1.791  0.0000E+00  0.2733E+00
      1.893  0.0000E+00  0.2733E+00
      1.994  0.0000E+00  0.2733E+00
      2.095  0.0000E+00  0.2733E+00
      2.196  0.0000E+00  0.2733E+00
