   22   22  300    1
  0.1227273E+04  0.3000000E-08  0.3000000E-08  0.3000000E-08  0.0000000E+00
  1.000000000000000E-004
  CAR 
 unknown system                          
     58      4     41
 
  0.2500000E+00  0.2500000E+00  0.2500000E+00  0.2500000E+00
    1      -26.138529   1.000000
    2      -25.595221   1.000000
    3      -23.388918   1.000000
    4      -22.744765   1.000000
    5      -19.559224   1.000000
    6      -18.210819   1.000000
    7      -17.563185   1.000000
    8      -15.767761   1.000000
    9      -14.912419   1.000000
   10      -14.079127   1.000000
   11      -13.125003   1.000000
   12      -12.242607   1.000000
   13      -11.997906   1.000000
   14      -11.344879   1.000000
   15      -11.101045   1.000000
   16      -10.728725   1.000000
   17      -10.221248   1.000000
   18      -10.116129   1.000000
   19       -9.917904   1.000000
   20       -9.548626   1.000000
   21       -9.390120   1.000000
   22       -9.151170   1.000000
   23       -9.071250   1.000000
   24       -8.826282   1.000000
   25       -8.567666   1.000000
   26       -6.779371   1.000000
   27       -6.162294   1.000000
   28       -5.906270   1.000000
   29       -5.477936   1.000000
   30       -1.063919   0.000000
   31       -0.875202   0.000000
   32       -0.501729   0.000000
   33       -0.326712   0.000000
   34       -0.200101   0.000000
   35       -0.072461   0.000000
   36        0.038104   0.000000
   37        0.121110   0.000000
   38        0.127801   0.000000
   39        0.132077   0.000000
   40        0.175193   0.000000
   41        0.192678   0.000000
 
 -0.2500000E+00  0.2500000E+00  0.2500000E+00  0.2500000E+00
    1      -26.138532   1.000000
    2      -25.595217   1.000000
    3      -23.388921   1.000000
    4      -22.744761   1.000000
    5      -19.559222   1.000000
    6      -18.210819   1.000000
    7      -17.563181   1.000000
    8      -15.767761   1.000000
    9      -14.912418   1.000000
   10      -14.079129   1.000000
   11      -13.125004   1.000000
   12      -12.242603   1.000000
   13      -11.997908   1.000000
   14      -11.344884   1.000000
   15      -11.101036   1.000000
   16      -10.728734   1.000000
   17      -10.221248   1.000000
   18      -10.116136   1.000000
   19       -9.917908   1.000000
   20       -9.548616   1.000000
   21       -9.390113   1.000000
   22       -9.151159   1.000000
   23       -9.071244   1.000000
   24       -8.826268   1.000000
   25       -8.567668   1.000000
   26       -6.779364   1.000000
   27       -6.162297   1.000000
   28       -5.906264   1.000000
   29       -5.477945   1.000000
   30       -1.063931   0.000000
   31       -0.875202   0.000000
   32       -0.501740   0.000000
   33       -0.326703   0.000000
   34       -0.200122   0.000000
   35       -0.073099   0.000000
   36        0.044153   0.000000
   37        0.109844   0.000000
   38        0.120190   0.000000
   39        0.139712   0.000000
   40        0.181637   0.000000
   41        0.189560   0.000000
 
  0.2500000E+00 -0.2500000E+00  0.2500000E+00  0.2500000E+00
    1      -26.138530   1.000000
    2      -25.595223   1.000000
    3      -23.388919   1.000000
    4      -22.744765   1.000000
    5      -19.559222   1.000000
    6      -18.210819   1.000000
    7      -17.563184   1.000000
    8      -15.767761   1.000000
    9      -14.912417   1.000000
   10      -14.079126   1.000000
   11      -13.125000   1.000000
   12      -12.242599   1.000000
   13      -11.997902   1.000000
   14      -11.344882   1.000000
   15      -11.101044   1.000000
   16      -10.728733   1.000000
   17      -10.221251   1.000000
   18      -10.116132   1.000000
   19       -9.917910   1.000000
   20       -9.548622   1.000000
   21       -9.390115   1.000000
   22       -9.151158   1.000000
   23       -9.071242   1.000000
   24       -8.826287   1.000000
   25       -8.567656   1.000000
   26       -6.779371   1.000000
   27       -6.162286   1.000000
   28       -5.906268   1.000000
   29       -5.477939   1.000000
   30       -1.063925   0.000000
   31       -0.875207   0.000000
   32       -0.501751   0.000000
   33       -0.326702   0.000000
   34       -0.200211   0.000000
   35       -0.072386   0.000000
   36        0.042797   0.000000
   37        0.104198   0.000000
   38        0.129706   0.000000
   39        0.136445   0.000000
   40        0.176741   0.000000
   41        0.195077   0.000000
 
 -0.2500000E+00 -0.2500000E+00  0.2500000E+00  0.2500000E+00
    1      -26.138530   1.000000
    2      -25.595220   1.000000
    3      -23.388919   1.000000
    4      -22.744764   1.000000
    5      -19.559222   1.000000
    6      -18.210818   1.000000
    7      -17.563187   1.000000
    8      -15.767763   1.000000
    9      -14.912417   1.000000
   10      -14.079120   1.000000
   11      -13.125004   1.000000
   12      -12.242602   1.000000
   13      -11.997909   1.000000
   14      -11.344880   1.000000
   15      -11.101035   1.000000
   16      -10.728726   1.000000
   17      -10.221249   1.000000
   18      -10.116127   1.000000
   19       -9.917912   1.000000
   20       -9.548624   1.000000
   21       -9.390124   1.000000
   22       -9.151158   1.000000
   23       -9.071225   1.000000
   24       -8.826272   1.000000
   25       -8.567669   1.000000
   26       -6.779376   1.000000
   27       -6.162284   1.000000
   28       -5.906271   1.000000
   29       -5.477951   1.000000
   30       -1.063926   0.000000
   31       -0.875206   0.000000
   32       -0.501740   0.000000
   33       -0.326708   0.000000
   34       -0.200134   0.000000
   35       -0.072963   0.000000
   36        0.044816   0.000000
   37        0.108675   0.000000
   38        0.127179   0.000000
   39        0.129818   0.000000
   40        0.179412   0.000000
   41        0.195915   0.000000
