 vasp.5.4.1 24Jun15 (build Jan 13 2020 12:58:22) complex                        
  
 executed on           IFC91_ompi date 2020.02.03  09:56:59
 running on   15 total cores
 each image running on    1 cores
 distrk:  each k-point on    1 cores,    1 groups
 distr:  one band on NCORES_PER_BAND=   1 cores,    1 groups


--------------------------------------------------------------------------------------------------------


 INCAR:
 POTCAR:    PAW_PBE H 15Jun2001                   
 POTCAR:    PAW_PBE C 08Apr2002                   
 POTCAR:    PAW_PBE N 08Apr2002                   
 POTCAR:    PAW_PBE O 08Apr2002                   
 POTCAR:    PAW_PBE H 15Jun2001                   
   VRHFIN =H: ultrasoft test                                                    
   LEXCH  = PE                                                                  
   EATOM  =    12.4884 eV,    0.9179 Ry                                         
                                                                                
   TITEL  = PAW_PBE H 15Jun2001                                                 
   LULTRA =        F    use ultrasoft PP ?                                      
   IUNSCR =        0    unscreen: 0-lin 1-nonlin 2-no                           
   RPACOR =    0.000    partial core radius                                     
   POMASS =    1.000; ZVAL   =    1.000    mass and valenz                      
   RCORE  =    1.100    outmost cutoff radius                                   
   RWIGS  =    0.700; RWIGS  =    0.370    wigner-seitz radius (au A)           
   ENMAX  =  250.000; ENMIN  =  200.000 eV                                      
   RCLOC  =    0.701    cutoff for local pot                                    
   LCOR   =        T    correct aug charges                                     
   LPAW   =        T    paw PP                                                  
   EAUG   =  400.000                                                            
   RMAX   =    1.123    core radius for proj-oper                               
   RAUG   =    1.200    factor for augmentation sphere                          
   RDEP   =    1.112    radius for radial grids                                 
   RDEPT  =    0.926    core radius for aug-charge                              
                                                                                
   Atomic configuration                                                         
    2 entries                                                                   
     n  l   j            E        occ.                                          
     1  0  0.50        -6.4927   1.0000                                         
     2  1  0.50        -3.4015   0.0000                                         
   Description                                                                  
     l       E           TYP  RCUT    TYP  RCUT                                 
     0     -6.4927494     23  1.100                                             
     0      6.8029130     23  1.100                                             
     1     -4.0817478     23  1.100                                             
  local pseudopotential read in
  atomic valenz-charges read in
  non local Contribution for L=           0  read in
    real space projection operators read in
  non local Contribution for L=           0  read in
    real space projection operators read in
  non local Contribution for L=           1  read in
    real space projection operators read in
    PAW grid and wavefunctions read in
 
   number of l-projection  operators is LMAX  =           3
   number of lm-projection operators is LMMAX =           5
 
 POTCAR:    PAW_PBE C 08Apr2002                   
   VRHFIN =C: s2p2                                                              
   LEXCH  = PE                                                                  
   EATOM  =   147.1560 eV,   10.8157 Ry                                         
                                                                                
   TITEL  = PAW_PBE C 08Apr2002                                                 
   LULTRA =        F    use ultrasoft PP ?                                      
   IUNSCR =        1    unscreen: 0-lin 1-nonlin 2-no                           
   RPACOR =    1.200    partial core radius                                     
   POMASS =   12.011; ZVAL   =    4.000    mass and valenz                      
   RCORE  =    1.500    outmost cutoff radius                                   
   RWIGS  =    1.630; RWIGS  =    0.863    wigner-seitz radius (au A)           
   ENMAX  =  400.000; ENMIN  =  300.000 eV                                      
   ICORE  =        2    local potential                                         
   LCOR   =        T    correct aug charges                                     
   LPAW   =        T    paw PP                                                  
   EAUG   =  644.873                                                            
   DEXC   =    0.000                                                            
   RMAX   =    1.529    core radius for proj-oper                               
   RAUG   =    1.300    factor for augmentation sphere                          
   RDEP   =    1.501    radius for radial grids                                 
   RDEPT  =    1.300    core radius for aug-charge                              
                                                                                
   Atomic configuration                                                         
    4 entries                                                                   
     n  l   j            E        occ.                                          
     1  0  0.50      -273.3789   2.0000                                         
     2  0  0.50       -13.7508   2.0000                                         
     2  1  0.50        -5.2854   2.0000                                         
     3  2  1.50        -5.4423   0.0000                                         
   Description                                                                  
     l       E           TYP  RCUT    TYP  RCUT                                 
     0    -13.7508458     23  1.200                                             
     0     -8.2022199     23  1.200                                             
     1     -5.2854383     23  1.500                                             
     1     34.0145650     23  1.500                                             
     2     -5.4423304      7  1.500                                             
  local pseudopotential read in
  partial core-charges read in
  partial kinetic energy density read in
  atomic valenz-charges read in
  non local Contribution for L=           0  read in
    real space projection operators read in
  non local Contribution for L=           0  read in
    real space projection operators read in
  non local Contribution for L=           1  read in
    real space projection operators read in
  non local Contribution for L=           1  read in
    real space projection operators read in
    PAW grid and wavefunctions read in
 
   number of l-projection  operators is LMAX  =           4
   number of lm-projection operators is LMMAX =           8
 
 POTCAR:    PAW_PBE N 08Apr2002                   
   VRHFIN =N: s2p3                                                              
   LEXCH  = PE                                                                  
   EATOM  =   264.5486 eV,   19.4438 Ry                                         
                                                                                
   TITEL  = PAW_PBE N 08Apr2002                                                 
   LULTRA =        F    use ultrasoft PP ?                                      
   IUNSCR =        1    unscreen: 0-lin 1-nonlin 2-no                           
   RPACOR =    1.200    partial core radius                                     
   POMASS =   14.001; ZVAL   =    5.000    mass and valenz                      
   RCORE  =    1.500    outmost cutoff radius                                   
   RWIGS  =    1.400; RWIGS  =    0.741    wigner-seitz radius (au A)           
   ENMAX  =  400.000; ENMIN  =  300.000 eV                                      
   ICORE  =        2    local potential                                         
   LCOR   =        T    correct aug charges                                     
   LPAW   =        T    paw PP                                                  
   EAUG   =  627.112                                                            
   DEXC   =    0.000                                                            
   RMAX   =    1.529    core radius for proj-oper                               
   RAUG   =    1.300    factor for augmentation sphere                          
   RDEP   =    1.514    radius for radial grids                                 
   RDEPT  =    1.338    core radius for aug-charge                              
                                                                                
   Atomic configuration                                                         
    4 entries                                                                   
     n  l   j            E        occ.                                          
     1  0  0.50      -384.7179   2.0000                                         
     2  0  0.50       -18.5828   2.0000                                         
     2  1  0.50        -7.0898   3.0000                                         
     3  2  1.50        -6.8029   0.0000                                         
   Description                                                                  
     l       E           TYP  RCUT    TYP  RCUT                                 
     0    -18.5828119     23  1.200                                             
     0    -13.5018863     23  1.200                                             
     1     -7.0897853     23  1.500                                             
     1      9.5240782     23  1.500                                             
     2     -6.8029130      7  1.500                                             
  local pseudopotential read in
  partial core-charges read in
  partial kinetic energy density read in
  atomic valenz-charges read in
  non local Contribution for L=           0  read in
    real space projection operators read in
  non local Contribution for L=           0  read in
    real space projection operators read in
  non local Contribution for L=           1  read in
    real space projection operators read in
  non local Contribution for L=           1  read in
    real space projection operators read in
    PAW grid and wavefunctions read in
 
   number of l-projection  operators is LMAX  =           4
   number of lm-projection operators is LMMAX =           8
 
 POTCAR:    PAW_PBE O 08Apr2002                   
   VRHFIN =O: s2p4                                                              
   LEXCH  = PE                                                                  
   EATOM  =   432.3788 eV,   31.7789 Ry                                         
                                                                                
   TITEL  = PAW_PBE O 08Apr2002                                                 
   LULTRA =        F    use ultrasoft PP ?                                      
   IUNSCR =        1    unscreen: 0-lin 1-nonlin 2-no                           
   RPACOR =    1.200    partial core radius                                     
   POMASS =   16.000; ZVAL   =    6.000    mass and valenz                      
   RCORE  =    1.520    outmost cutoff radius                                   
   RWIGS  =    1.550; RWIGS  =    0.820    wigner-seitz radius (au A)           
   ENMAX  =  400.000; ENMIN  =  300.000 eV                                      
   ICORE  =        2    local potential                                         
   LCOR   =        T    correct aug charges                                     
   LPAW   =        T    paw PP                                                  
   EAUG   =  605.392                                                            
   DEXC   =    0.000                                                            
   RMAX   =    1.553    core radius for proj-oper                               
   RAUG   =    1.300    factor for augmentation sphere                          
   RDEP   =    1.550    radius for radial grids                                 
   RDEPT  =    1.329    core radius for aug-charge                              
                                                                                
   Atomic configuration                                                         
    4 entries                                                                   
     n  l   j            E        occ.                                          
     1  0  0.50      -514.6923   2.0000                                         
     2  0  0.50       -23.9615   2.0000                                         
     2  1  0.50        -9.0305   4.0000                                         
     3  2  1.50        -9.5241   0.0000                                         
   Description                                                                  
     l       E           TYP  RCUT    TYP  RCUT                                 
     0    -23.9615318     23  1.200                                             
     0     -9.5240782     23  1.200                                             
     1     -9.0304911     23  1.520                                             
     1      8.1634956     23  1.520                                             
     2     -9.5240782      7  1.500                                             
  local pseudopotential read in
  partial core-charges read in
  partial kinetic energy density read in
  kinetic energy density of atom read in
  atomic valenz-charges read in
  non local Contribution for L=           0  read in
    real space projection operators read in
  non local Contribution for L=           0  read in
    real space projection operators read in
  non local Contribution for L=           1  read in
    real space projection operators read in
  non local Contribution for L=           1  read in
    real space projection operators read in
    PAW grid and wavefunctions read in
 
   number of l-projection  operators is LMAX  =           4
   number of lm-projection operators is LMMAX =           8
 
 Optimization of the real space projectors (new method)

 maximal supplied QI-value         = 34.20
 optimisation between [QCUT,QGAM] = [  9.92, 20.18] = [ 27.55,114.04] Ry 
 Optimized for a Real-space Cutoff    1.26 Angstroem

   l    n(q)    QCUT    max X(q) W(low)/X(q) W(high)/X(q)  e(spline) 
   0      8     9.919    19.460    0.50E-03    0.23E-03    0.29E-06
   0      8     9.919    12.209    0.48E-03    0.23E-03    0.28E-06
   1      7     9.919     4.655    0.17E-03    0.75E-03    0.30E-06
 Optimization of the real space projectors (new method)

 maximal supplied QI-value         = 25.13
 optimisation between [QCUT,QGAM] = [ 10.05, 20.36] = [ 28.30,116.06] Ry 
 Optimized for a Real-space Cutoff    1.30 Angstroem

   l    n(q)    QCUT    max X(q) W(low)/X(q) W(high)/X(q)  e(spline) 
   0      8    10.053   115.676    0.49E-03    0.72E-03    0.18E-06
   0      8    10.053    87.132    0.49E-03    0.71E-03    0.18E-06
   1      7    10.053     4.429    0.32E-03    0.31E-03    0.18E-06
   1      7    10.053     2.733    0.23E-03    0.19E-03    0.20E-06
 Optimization of the real space projectors (new method)

 maximal supplied QI-value         = 25.13
 optimisation between [QCUT,QGAM] = [ 10.05, 20.36] = [ 28.30,116.06] Ry 
 Optimized for a Real-space Cutoff    1.65 Angstroem

   l    n(q)    QCUT    max X(q) W(low)/X(q) W(high)/X(q)  e(spline) 
   0     10    10.053    79.467    0.76E-04    0.72E-04    0.56E-06
   0     10    10.053    66.151    0.76E-04    0.72E-04    0.55E-06
   1     10    10.053     8.350    0.25E-03    0.92E-03    0.41E-05
   1     10    10.053     5.531    0.27E-03    0.10E-02    0.45E-05
 Optimization of the real space projectors (new method)

 maximal supplied QI-value         = 24.76
 optimisation between [QCUT,QGAM] = [ 10.15, 20.30] = [ 28.85,115.39] Ry 
 Optimized for a Real-space Cutoff    1.38 Angstroem

   l    n(q)    QCUT    max X(q) W(low)/X(q) W(high)/X(q)  e(spline) 
   0      8    10.150    20.381    0.22E-03    0.32E-03    0.29E-06
   0      8    10.150    15.268    0.23E-03    0.35E-03    0.30E-06
   1      8    10.150     5.964    0.46E-03    0.53E-03    0.21E-06
   1      8    10.150     5.382    0.38E-03    0.45E-03    0.19E-06
  PAW_PBE H 15Jun2001                   :
 energy of atom  1       EATOM=  -12.4884
 kinetic energy error for atom=    0.0098 (will be added to EATOM!!)
  PAW_PBE C 08Apr2002                   :
 energy of atom  2       EATOM= -147.1560
 kinetic energy error for atom=    0.0288 (will be added to EATOM!!)
  PAW_PBE N 08Apr2002                   :
 energy of atom  3       EATOM= -264.5486
 kinetic energy error for atom=    0.0736 (will be added to EATOM!!)
  PAW_PBE O 08Apr2002                   :
 energy of atom  4       EATOM= -432.3788
 kinetic energy error for atom=    0.1156 (will be added to EATOM!!)
 
 
 POSCAR: H12 C6 N2 O2                            
  positions in direct lattice
  velocities in cartesian coordinates
 exchange correlation table for  LEXCH =        8
   RHO(1)=    0.500       N(1)  =     2000
   RHO(2)=  100.500       N(2)  =     4000

 VTST: version 3.2, (02/03/18)

 CHAIN: initializing optimizer
 
 OPT: Using FIRE optimizer
 OPT: FIRE, Init
 OPT: FIRE, MAXMOVE       0.20000
 OPT: FIRE, TIMESTEP      0.10000
 OPT: FIRE, FTIMEMAX      1.00000
 OPT: FIRE, FTIMEINC      1.10000
 OPT: FIRE, FTIMEDEC      0.50000
 OPT: FIRE, FALPHADEC     0.99000
 OPT: FIRE, FALPHA        0.10000
 OPT: FIRE, FNMIN         5
 
 CHAIN: Read ICHAIN            0
 CHAIN: Running the NEB
 NEB:          SPRING     -5.000000
 NEB:          LCLIMB      T
 NEB:     LTANGENTOLD      F
 NEB:           LDNEB      F
 NEB:        LDNEBORG      F
 NEB:        LNEBCELL      F
 NEB:          EFIRST      0.000000
 NEB:           ELAST      0.000000
 
 POSCAR: H12 C6 N2 O2                            
  positions in direct lattice
  No initial velocities read in
 
 POSCAR: H12 C6 N2 O2                            
  positions in direct lattice
  No initial velocities read in
 


--------------------------------------------------------------------------------------------------------


 ion  position               nearest neighbor table
   1  0.379  0.544  0.518-  13 1.09
   2  0.385  0.497  0.482-  13 1.10
   3  0.379  0.489  0.540-  13 1.10
   4  0.451  0.450  0.497-  19 1.02
   5  0.521  0.492  0.550-  15 1.10
   6  0.563  0.421  0.533-  16 1.10
   7  0.522  0.405  0.494-  16 1.10
   8  0.508  0.409  0.552-  16 1.10
   9  0.523  0.555  0.505-  20 1.02
  10  0.606  0.553  0.452-  18 1.10
  11  0.558  0.564  0.419-  18 1.10
  12  0.572  0.601  0.464-  18 1.10
  13  0.394  0.511  0.515-   1 1.09   2 1.10   3 1.10  14 1.51
  14  0.444  0.514  0.520-  21 1.25  19 1.36  13 1.51
  15  0.515  0.473  0.519-   5 1.10  19 1.46  16 1.52  17 1.55
  16  0.527  0.424  0.525-   6 1.10   7 1.10   8 1.10  15 1.52
  17  0.544  0.495  0.482-  22 1.23  20 1.36  15 1.55
  18  0.571  0.566  0.453-  12 1.10  10 1.10  11 1.10  20 1.45
  19  0.467  0.477  0.510-   4 1.02  14 1.36  15 1.46
  20  0.545  0.540  0.484-   9 1.02  17 1.36  18 1.45
  21  0.462  0.548  0.535-  14 1.25
  22  0.565  0.472  0.454-  17 1.23
 
  LATTYP: Found a simple cubic cell.
 ALAT       =    30.0000000000
  
  Lattice vectors:
  
 A1 = (  30.0000000000,   0.0000000000,   0.0000000000)
 A2 = (   0.0000000000,  30.0000000000,   0.0000000000)
 A3 = (   0.0000000000,   0.0000000000,  30.0000000000)


Analysis of symmetry for initial positions (statically):
=====================================================================
 Subroutine PRICEL returns:
 Original cell was already a primitive cell.
 

 Routine SETGRP: Setting up the symmetry group for a 
 simple cubic supercell.


 Subroutine GETGRP returns: Found  1 space group operations
 (whereof  1 operations were pure point group operations)
 out of a pool of 48 trial point group operations.


The static configuration has the point symmetry C_1 .


Analysis of symmetry for dynamics (positions and initial velocities):
=====================================================================
 Subroutine PRICEL returns:
 Original cell was already a primitive cell.
 

 Routine SETGRP: Setting up the symmetry group for a 
 simple cubic supercell.


 Subroutine GETGRP returns: Found  1 space group operations
 (whereof  1 operations were pure point group operations)
 out of a pool of 48 trial point group operations.


The dynamic configuration has the point symmetry C_1 .
 
 
 KPOINTS: Mo2C                                    

Automatic generation of k-mesh.
Space group operators:
 irot       det(A)        alpha          n_x          n_y          n_z        tau_x        tau_y        tau_z
    1     1.000000     0.000000     1.000000     0.000000     0.000000     0.000000     0.000000     0.000000
 
 Subroutine IBZKPT returns following result:
 ===========================================
 
 Found      4 irreducible k-points:
 
 Following reciprocal coordinates:
            Coordinates               Weight
  0.250000  0.250000  0.250000      2.000000
 -0.250000  0.250000  0.250000      2.000000
  0.250000 -0.250000  0.250000      2.000000
 -0.250000 -0.250000  0.250000      2.000000
 
 Following cartesian coordinates:
            Coordinates               Weight
  0.008333  0.008333  0.008333      2.000000
 -0.008333  0.008333  0.008333      2.000000
  0.008333 -0.008333  0.008333      2.000000
 -0.008333 -0.008333  0.008333      2.000000
 


--------------------------------------------------------------------------------------------------------




 Dimension of arrays:
   k-points           NKPTS =      4   k-points in BZ     NKDIM =      4   number of bands    NBANDS=     41
   number of dos      NEDOS =    301   number of ions     NIONS =     22
   non local maximal  LDIM  =      4   non local SUM 2l+1 LMDIM =      8
   total plane-waves  NPLWV = ******
   max r-space proj   IRMAX =   2395   max aug-charges    IRDMAX=   1821
   dimension x,y,z NGX =   150 NGY =  150 NGZ =  150
   dimension x,y,z NGXF=   300 NGYF=  300 NGZF=  300
   support grid    NGXF=   300 NGYF=  300 NGZF=  300
   ions per type =              12   6   2   2
 NGX,Y,Z   is equivalent  to a cutoff of   8.31,  8.31,  8.31 a.u.
 NGXF,Y,Z  is equivalent  to a cutoff of  16.62, 16.62, 16.62 a.u.


 I would recommend the setting:
   dimension x,y,z NGX =   147 NGY =  147 NGZ =  147
 SYSTEM =  unknown system                          
 POSCAR =  H12 C6 N2 O2                            

 Startparameter for this run:
   NWRITE =      2    write-flag & timer
   PREC   = normal    normal or accurate (medium, high low for compatibility)
   ISTART =      0    job   : 0-new  1-cont  2-samecut
   ICHARG =      2    charge: 1-file 2-atom 10-const
   ISPIN  =      1    spin polarized calculation?
   LNONCOLLINEAR =      F non collinear calculations
   LSORBIT =      F    spin-orbit coupling
   INIWAV =      1    electr: 0-lowe 1-rand  2-diag
   LASPH  =      F    aspherical Exc in radial PAW
   METAGGA=      F    non-selfconsistent MetaGGA calc.

 Electronic Relaxation 1
   ENCUT  =  400.0 eV  29.40 Ry    5.42 a.u.  48.92 48.92 48.92*2*pi/ulx,y,z
   ENINI  =  400.0     initial cutoff
   ENAUG  =  644.9 eV  augmentation charge cutoff
   NELM   =    500;   NELMIN=  6; NELMDL= -5     # of ELM steps 
   EDIFF  = 0.1E-03   stopping-criterion for ELM
   LREAL  =      T    real-space projection
   NLSPLINE    = F    spline interpolate recip. space projectors
   LCOMPAT=      F    compatible to vasp.4.4
   GGA_COMPAT  = T    GGA compatible to vasp.4.4-vasp.4.6
   LMAXPAW     = -100 max onsite density
   LMAXMIX     =    2 max onsite mixed and CHGCAR
   VOSKOWN=      0    Vosko Wilk Nusair interpolation
   ROPT   =   -0.00050  -0.00050  -0.00050  -0.00050
 Ionic relaxation
   EDIFFG = -.1E+00   stopping-criterion for IOM
   NSW    =    300    number of steps for IOM
   NBLOCK =      1;   KBLOCK =    300    inner block; outer block 
   IBRION =      3    ionic relax: 0-MD 1-quasi-New 2-CG
   NFREE  =      0    steps in history (QN), initial steepest desc. (CG)
   ISIF   =      2    stress and relaxation
   IWAVPR =     11    prediction:  0-non 1-charg 2-wave 3-comb
   ISYM   =      2    0-nonsym 1-usesym 2-fastsym
   LCORR  =      T    Harris-Foulkes like correction to forces

   POTIM  = 0.0000    time-step for ionic-motion
   TEIN   =    0.0    initial temperature
   TEBEG  =    0.0;   TEEND  =   0.0 temperature during run
   SMASS  =   2.00    Nose mass-parameter (am)
   estimated Nose-frequenzy (Omega)   =  0.24E+10 period in steps =  0.00 mass=   0.137E-25a.u.
   SCALEE = 1.0000    scale energy and forces
   NPACO  =    256;   APACO  = 16.0  distance and # of slots for P.C.
   PSTRESS=    0.0 pullay stress

  Mass of Ions in am
   POMASS =   1.00 12.01 14.00 16.00
  Ionic Valenz
   ZVAL   =   1.00  4.00  5.00  6.00
  Atomic Wigner-Seitz radii
   RWIGS  =  -1.00 -1.00 -1.00 -1.00
  virtual crystal weights 
   VCA    =   1.00  1.00  1.00  1.00
   NELECT =      58.0000    total number of electrons
   NUPDOWN=      -1.0000    fix difference up-down

 DOS related values:
   EMIN   =  10.00;   EMAX   =-10.00  energy-range for DOS
   EFERMI =   0.00
   ISMEAR =     0;   SIGMA  =   0.20  broadening in eV -4-tet -1-fermi 0-gaus

 Electronic relaxation 2 (details)
   IALGO  =     38    algorithm
   LDIAG  =      T    sub-space diagonalisation (order eigenvalues)
   LSUBROT=      F    optimize rotation matrix (better conditioning)
   TURBO    =      0    0=normal 1=particle mesh
   IRESTART =      0    0=no restart 2=restart with 2 vectors
   NREBOOT  =      0    no. of reboots
   NMIN     =      0    reboot dimension
   EREF     =   0.00    reference energy to select bands
   IMIX   =      4    mixing-type and parameters
     AMIX     =   0.40;   BMIX     =  1.00
     AMIX_MAG =   1.60;   BMIX_MAG =  1.00
     AMIN     =   0.10
     WC   =   100.;   INIMIX=   1;  MIXPRE=   1;  MAXMIX= -45

 Intra band minimization:
   WEIMIN = 0.0010     energy-eigenvalue tresh-hold
   EBREAK =  0.61E-06  absolut break condition
   DEPER  =   0.30     relativ break condition  

   TIME   =   0.40     timestep for ELM

  volume/ion in A,a.u.               =    1227.27      8282.05
  Fermi-wavevector in a.u.,A,eV,Ry     =   0.211234  0.399174  0.607087  0.044620
  Thomas-Fermi vector in A             =   0.980021
 
 Write flags
   LWAVE  =      F    write WAVECAR
   LCHARG =      F    write CHGCAR
   LVTOT  =      F    write LOCPOT, total local potential
   LVHAR  =      F    write LOCPOT, Hartree potential only
   LELF   =      F    write electronic localiz. function (ELF)
   LORBIT =      0    0 simple, 1 ext, 2 COOP (PROOUT)


 Dipole corrections
   LMONO  =      F    monopole corrections only (constant potential shift)
   LDIPOL =      F    correct potential (dipole corrections)
   IDIPOL =      0    1-x, 2-y, 3-z, 4-all directions 
   EPSILON=  1.0000000 bulk dielectric constant

 Exchange correlation treatment:
   GGA     =    PE    GGA type
   LEXCH   =     8    internal setting for exchange type
   VOSKOWN=      0    Vosko Wilk Nusair interpolation
   LHFCALC =     F    Hartree Fock is set to
   LHFONE  =     F    Hartree Fock one center treatment
   AEXX    =    0.0000 exact exchange contribution

 Linear response parameters
   LEPSILON=     F    determine dielectric tensor
   LRPA    =     F    only Hartree local field effects (RPA)
   LNABLA  =     F    use nabla operator in PAW spheres
   LVEL    =     F    velocity operator in full k-point grid
   LINTERFAST=   F  fast interpolation
   KINTER  =     0    interpolate to denser k-point grid
   CSHIFT  =0.1000    complex shift for real part using Kramers Kronig
   OMEGAMAX=  -1.0    maximum frequency
   DEG_THRESHOLD= 0.2000000E-02 threshold for treating states as degnerate
   RTIME   =    0.100 relaxation time in fs

 Orbital magnetization related:
   ORBITALMAG=     F  switch on orbital magnetization
   LCHIMAG   =     F  perturbation theory with respect to B field
   DQ        =  0.001000  dq finite difference perturbation B field



--------------------------------------------------------------------------------------------------------


 quickmin algorithm: (dynamic with friction)
 charge density and potential will be updated during run
 non-spin polarized calculation
 Variant of blocked Davidson
 Davidson routine will perform the subspace rotation
 perform sub-space diagonalisation
    after iterative eigenvector-optimisation
 modified Broyden-mixing scheme, WC =      100.0
 initial mixing is a Kerker type mixing with AMIX =  0.4000 and BMIX =      1.0000
 Hartree-type preconditioning will be used
 using additional bands           12
 real space projection scheme for non local part
 use partial core corrections
 calculate Harris-corrections to forces 
   (improved forces if not selfconsistent)
 use gradient corrections 
 use of overlap-Matrix (Vanderbilt PP)
 Gauss-broadening in eV      SIGMA  =   0.20


--------------------------------------------------------------------------------------------------------


  energy-cutoff  :      400.00
  volume of cell :    27000.00
      direct lattice vectors                 reciprocal lattice vectors
    30.000000000  0.000000000  0.000000000     0.033333333  0.000000000  0.000000000
     0.000000000 30.000000000  0.000000000     0.000000000  0.033333333  0.000000000
     0.000000000  0.000000000 30.000000000     0.000000000  0.000000000  0.033333333

  length of vectors
    30.000000000 30.000000000 30.000000000     0.033333333  0.033333333  0.033333333


 
 k-points in units of 2pi/SCALE and weight: Mo2C                                    
   0.00833333  0.00833333  0.00833333       0.250
  -0.00833333  0.00833333  0.00833333       0.250
   0.00833333 -0.00833333  0.00833333       0.250
  -0.00833333 -0.00833333  0.00833333       0.250
 
 k-points in reciprocal lattice and weights: Mo2C                                    
   0.25000000  0.25000000  0.25000000       0.250
  -0.25000000  0.25000000  0.25000000       0.250
   0.25000000 -0.25000000  0.25000000       0.250
  -0.25000000 -0.25000000  0.25000000       0.250
 
 position of ions in fractional coordinates (direct lattice) 
   0.37877523  0.54391981  0.51800511
   0.38471511  0.49680830  0.48185189
   0.37935246  0.48879886  0.54034693
   0.45115190  0.45010359  0.49690719
   0.52097617  0.49175544  0.54962752
   0.56306169  0.42114975  0.53283367
   0.52192550  0.40546074  0.49385920
   0.50800097  0.40903193  0.55207607
   0.52310490  0.55453570  0.50532087
   0.60558499  0.55330150  0.45178182
   0.55785313  0.56445098  0.41865348
   0.57157270  0.60068660  0.46406120
   0.39356209  0.51074435  0.51455852
   0.44358827  0.51426455  0.52018457
   0.51506968  0.47276054  0.51873762
   0.52747147  0.42407606  0.52491320
   0.54396477  0.49450836  0.48162452
   0.57123301  0.56592471  0.45277590
   0.46732610  0.47711122  0.50953589
   0.54498555  0.53965485  0.48382435
   0.46205228  0.54849844  0.53477338
   0.56467203  0.47245456  0.45374859
 
 position of ions in cartesian coordinates  (Angst):
  11.36325691 16.31759419 15.54015325
  11.54145329 14.90424890 14.45555662
  11.38057366 14.66396590 16.21040782
  13.53455700 13.50310777 14.90721578
  15.62928495 14.75266309 16.48882564
  16.89185055 12.63449253 15.98500996
  15.65776510 12.16382222 14.81577595
  15.24002911 12.27095802 16.56228204
  15.69314706 16.63607094 15.15962598
  18.16754957 16.59904509 13.55345446
  16.73559400 16.93352942 12.55960431
  17.14718085 18.02059810 13.92183598
  11.80686277 15.32233051 15.43675563
  13.30764804 15.42793662 15.60553696
  15.45209046 14.18281624 15.56212857
  15.82414415 12.72228178 15.74739601
  16.31894301 14.83525072 14.44873567
  17.13699018 16.97774118 13.58327693
  14.01978307 14.31333654 15.28607669
  16.34956655 16.18964559 14.51473046
  13.86156852 16.45495310 16.04320141
  16.94016092 14.17363687 13.61245773
 


--------------------------------------------------------------------------------------------------------


 k-point  1 :   0.2500 0.2500 0.2500  plane waves:  490454
 k-point  2 :  -0.2500 0.2500 0.2500  plane waves:  490454
 k-point  3 :   0.2500-0.2500 0.2500  plane waves:  490454
 k-point  4 :  -0.2500-0.2500 0.2500  plane waves:  490454

 maximum and minimum number of plane-waves per node :    490454   490454

 maximum number of plane-waves:    490454
 maximum index in each direction: 
   IXMAX=   49   IYMAX=   49   IZMAX=   48
   IXMIN=  -49   IYMIN=  -49   IZMIN=  -49

 WARNING: aliasing errors must be expected set NGX to 198 to avoid them
 WARNING: aliasing errors must be expected set NGY to 198 to avoid them
 WARNING: aliasing errors must be expected set NGZ to 196 to avoid them
 aliasing errors are usually negligible using standard VASP settings
 and one can safely disregard these warnings

 serial   3D FFT for wavefunctions
 parallel 3D FFT for charge:
    minimum data exchange during FFTs selected (reduces bandwidth)


 total amount of memory used by VASP on root node  4333708. kBytes
========================================================================

   base      :      30000. kBytes
   nonlr-proj:       2403. kBytes
   fftplans  :     924480. kBytes
   grid      :    2089440. kBytes
   one-center:         67. kBytes
   wavefun   :    1287318. kBytes
 
     INWAV:  cpu time    0.0010: real time    0.0004
 Broyden mixing: mesh for mixing (old mesh)
   NGX = 97   NGY = 97   NGZ = 97
  (NGX  =300   NGY  =300   NGZ  =300)
  gives a total of 912673 points

 initial charge density was supplied:
 charge density of overlapping atoms calculated
 number of electron      58.0000000 magnetization 
 keeping initial charge density in first step


--------------------------------------------------------------------------------------------------------


 Maximum index for non-local projection operator         2274
 Maximum index for augmentation-charges         1575 (set IRDMAX)


--------------------------------------------------------------------------------------------------------


 First call to EWALD:  gamma=   0.059
 Maximum number of real-space cells 3x 3x 3
 Maximum number of reciprocal cells 3x 3x 3

 FEWALD executed in parallel
    FEWALD:  cpu time    0.0050: real time    0.0049


----------------------------------------- Iteration    1(   1)  ---------------------------------------


    POTLOK:  cpu time   24.0623: real time   24.0436
    SETDIJ:  cpu time    0.0300: real time    0.0287
     EDDAV:  cpu time  303.6438: real time  303.3969
       DOS:  cpu time    0.0010: real time    0.0009
    --------------------------------------------
      LOOP:  cpu time  327.7402: real time  327.4751

 eigenvalue-minimisations  :   392
 total energy-change (2. order) : 0.6117570E+03  (-0.7945026E+03)
 number of electron      58.0000000 magnetization 
 augmentation part       58.0000000 magnetization 

 Free energy of the ion-electron system (eV)
  ---------------------------------------------------
  alpha Z        PSCENC =         0.51957394
  Ewald energy   TEWEN  =      6065.25672680
  -Hartree energ DENC   =     -7807.19691921
  -exchange      EXHF   =         0.00000000
  -V(xc)+E(xc)   XCENC  =       202.05506935
  PAW double counting   =      1779.70502452    -1789.20730229
  entropy T*S    EENTRO =        -0.79871942
  eigenvalues    EBANDS =      -264.55976751
  atomic energy  EATOM  =      2425.98333211
  Solvation  Ediel_sol  =         0.00000000
  ---------------------------------------------------
  free energy    TOTEN  =       611.75701828 eV

  energy without entropy =      612.55573770  energy(sigma->0) =      612.15637799


--------------------------------------------------------------------------------------------------------




----------------------------------------- Iteration    1(   2)  ---------------------------------------


     EDDAV:  cpu time  418.5504: real time  418.2092
       DOS:  cpu time    0.0000: real time    0.0007
    --------------------------------------------
      LOOP:  cpu time  418.5524: real time  418.2173

 eigenvalue-minimisations  :   571
 total energy-change (2. order) :-0.3355391E+03  (-0.3244037E+03)
 number of electron      58.0000000 magnetization 
 augmentation part       58.0000000 magnetization 

 Free energy of the ion-electron system (eV)
  ---------------------------------------------------
  alpha Z        PSCENC =         0.51957394
  Ewald energy   TEWEN  =      6065.25672680
  -Hartree energ DENC   =     -7807.19691921
  -exchange      EXHF   =         0.00000000
  -V(xc)+E(xc)   XCENC  =       202.05506935
  PAW double counting   =      1779.70502452    -1789.20730229
  entropy T*S    EENTRO =        -0.52277651
  eigenvalues    EBANDS =      -600.37477735
  atomic energy  EATOM  =      2425.98333211
  Solvation  Ediel_sol  =         0.00000000
  ---------------------------------------------------
  free energy    TOTEN  =       276.21795135 eV

  energy without entropy =      276.74072786  energy(sigma->0) =      276.47933960


--------------------------------------------------------------------------------------------------------




----------------------------------------- Iteration    1(   3)  ---------------------------------------


     EDDAV:  cpu time  366.1923: real time  365.8935
       DOS:  cpu time    0.0010: real time    0.0006
    --------------------------------------------
      LOOP:  cpu time  366.1943: real time  365.8974

 eigenvalue-minimisations  :   488
 total energy-change (2. order) :-0.3188716E+03  (-0.3085142E+03)
 number of electron      58.0000000 magnetization 
 augmentation part       58.0000000 magnetization 

 Free energy of the ion-electron system (eV)
  ---------------------------------------------------
  alpha Z        PSCENC =         0.51957394
  Ewald energy   TEWEN  =      6065.25672680
  -Hartree energ DENC   =     -7807.19691921
  -exchange      EXHF   =         0.00000000
  -V(xc)+E(xc)   XCENC  =       202.05506935
  PAW double counting   =      1779.70502452    -1789.20730229
  entropy T*S    EENTRO =        -0.05985445
  eigenvalues    EBANDS =      -919.70927185
  atomic energy  EATOM  =      2425.98333211
  Solvation  Ediel_sol  =         0.00000000
  ---------------------------------------------------
  free energy    TOTEN  =       -42.65362109 eV

  energy without entropy =      -42.59376664  energy(sigma->0) =      -42.62369387


--------------------------------------------------------------------------------------------------------




----------------------------------------- Iteration    1(   4)  ---------------------------------------


     EDDAV:  cpu time  314.8171: real time  314.5646
       DOS:  cpu time    0.0010: real time    0.0005
    --------------------------------------------
      LOOP:  cpu time  314.8201: real time  315.1219

 eigenvalue-minimisations  :   404
 total energy-change (2. order) :-0.9317848E+02  (-0.9214171E+02)
 number of electron      58.0000000 magnetization 
 augmentation part       58.0000000 magnetization 

 Free energy of the ion-electron system (eV)
  ---------------------------------------------------
  alpha Z        PSCENC =         0.51957394
  Ewald energy   TEWEN  =      6065.25672680
  -Hartree energ DENC   =     -7807.19691921
  -exchange      EXHF   =         0.00000000
  -V(xc)+E(xc)   XCENC  =       202.05506935
  PAW double counting   =      1779.70502452    -1789.20730229
  entropy T*S    EENTRO =         0.00000000
  eigenvalues    EBANDS =     -1012.94761013
  atomic energy  EATOM  =      2425.98333211
  Solvation  Ediel_sol  =         0.00000000
  ---------------------------------------------------
  free energy    TOTEN  =      -135.83210491 eV

  energy without entropy =     -135.83210491  energy(sigma->0) =     -135.83210491


--------------------------------------------------------------------------------------------------------




----------------------------------------- Iteration    1(   5)  ---------------------------------------


     EDDAV:  cpu time  305.7285: real time  305.4962
       DOS:  cpu time    0.0000: real time    0.0005
    CHARGE:  cpu time   18.1232: real time   18.1099
    MIXING:  cpu time    0.6319: real time    0.6309
    --------------------------------------------
      LOOP:  cpu time  324.4857: real time  324.2423

 eigenvalue-minimisations  :   415
 total energy-change (2. order) :-0.6096334E+01  (-0.6078834E+01)
 number of electron      57.9999916 magnetization 
 augmentation part        2.9716420 magnetization 

 Broyden mixing:
  rms(total) = 0.19564E+01    rms(broyden)= 0.19543E+01
  rms(prec ) = 0.20317E+01
  weight for this iteration     100.00

 Free energy of the ion-electron system (eV)
  ---------------------------------------------------
  alpha Z        PSCENC =         0.51957394
  Ewald energy   TEWEN  =      6065.25672680
  -Hartree energ DENC   =     -7807.19691921
  -exchange      EXHF   =         0.00000000
  -V(xc)+E(xc)   XCENC  =       202.05506935
  PAW double counting   =      1779.70502452    -1789.20730229
  entropy T*S    EENTRO =         0.00000000
  eigenvalues    EBANDS =     -1019.04394400
  atomic energy  EATOM  =      2425.98333211
  Solvation  Ediel_sol  =         0.00000000
  ---------------------------------------------------
  free energy    TOTEN  =      -141.92843879 eV

  energy without entropy =     -141.92843879  energy(sigma->0) =     -141.92843879


--------------------------------------------------------------------------------------------------------




----------------------------------------- Iteration    1(   6)  ---------------------------------------


    POTLOK:  cpu time   24.2313: real time   24.2141
    SETDIJ:  cpu time    0.0300: real time    0.0298
     EDDAV:  cpu time  282.0021: real time  281.7841
       DOS:  cpu time    0.0000: real time    0.0005
    CHARGE:  cpu time   16.2295: real time   16.2163
    MIXING:  cpu time    0.6239: real time    0.6233
    --------------------------------------------
      LOOP:  cpu time  323.1189: real time  322.8718

 eigenvalue-minimisations  :   408
 total energy-change (2. order) : 0.1010872E+02  (-0.2394613E+01)
 number of electron      57.9999925 magnetization 
 augmentation part        2.6324533 magnetization 

 Broyden mixing:
  rms(total) = 0.10011E+01    rms(broyden)= 0.10006E+01
  rms(prec ) = 0.10294E+01
  weight for this iteration     100.00

 eigenvalues of (default mixing * dielectric matrix)
  average eigenvalue GAMMA=   1.2773
  1.2773

 Free energy of the ion-electron system (eV)
  ---------------------------------------------------
  alpha Z        PSCENC =         0.51957394
  Ewald energy   TEWEN  =      6065.25672680
  -Hartree energ DENC   =     -7922.64248422
  -exchange      EXHF   =         0.00000000
  -V(xc)+E(xc)   XCENC  =       208.13866934
  PAW double counting   =      2779.24771337    -2790.11285101
  entropy T*S    EENTRO =         0.00000000
  eigenvalues    EBANDS =      -898.21040293
  atomic energy  EATOM  =      2425.98333211
  Solvation  Ediel_sol  =         0.00000000
  ---------------------------------------------------
  free energy    TOTEN  =      -131.81972258 eV

  energy without entropy =     -131.81972258  energy(sigma->0) =     -131.81972258


--------------------------------------------------------------------------------------------------------




----------------------------------------- Iteration    1(   7)  ---------------------------------------


    POTLOK:  cpu time   20.1599: real time   20.1450
    SETDIJ:  cpu time    0.0280: real time    0.0284
     EDDAV:  cpu time  304.8277: real time  304.5923
       DOS:  cpu time    0.0010: real time    0.0005
    CHARGE:  cpu time   17.7343: real time   17.7217
    MIXING:  cpu time    0.6859: real time    0.6857
    --------------------------------------------
      LOOP:  cpu time  343.4378: real time  343.1780

 eigenvalue-minimisations  :   423
 total energy-change (2. order) : 0.1768974E+01  (-0.4529938E+00)
 number of electron      57.9999922 magnetization 
 augmentation part        2.6213527 magnetization 

 Broyden mixing:
  rms(total) = 0.51558E+00    rms(broyden)= 0.51547E+00
  rms(prec ) = 0.52816E+00
  weight for this iteration     100.00

 eigenvalues of (default mixing * dielectric matrix)
  average eigenvalue GAMMA=   1.5627
  1.0974  2.0281

 Free energy of the ion-electron system (eV)
  ---------------------------------------------------
  alpha Z        PSCENC =         0.51957394
  Ewald energy   TEWEN  =      6065.25672680
  -Hartree energ DENC   =     -7985.04472921
  -exchange      EXHF   =         0.00000000
  -V(xc)+E(xc)   XCENC  =       211.16873474
  PAW double counting   =      3754.18197435    -3765.31790638
  entropy T*S    EENTRO =         0.00000000
  eigenvalues    EBANDS =      -836.79845481
  atomic energy  EATOM  =      2425.98333211
  Solvation  Ediel_sol  =         0.00000000
  ---------------------------------------------------
  free energy    TOTEN  =      -130.05074845 eV

  energy without entropy =     -130.05074845  energy(sigma->0) =     -130.05074845


--------------------------------------------------------------------------------------------------------




----------------------------------------- Iteration    1(   8)  ---------------------------------------


    POTLOK:  cpu time   24.1043: real time   24.0861
    SETDIJ:  cpu time    0.0290: real time    0.0293
     EDDAV:  cpu time  315.9420: real time  315.7000
       DOS:  cpu time    0.0000: real time    0.0005
    CHARGE:  cpu time   17.2464: real time   17.2333
    MIXING:  cpu time    0.7359: real time    0.7350
    --------------------------------------------
      LOOP:  cpu time  358.0596: real time  357.7879

 eigenvalue-minimisations  :   432
 total energy-change (2. order) : 0.4832585E+00  (-0.8618240E-01)
 number of electron      57.9999924 magnetization 
 augmentation part        2.5918498 magnetization 

 Broyden mixing:
  rms(total) = 0.15548E+00    rms(broyden)= 0.15541E+00
  rms(prec ) = 0.16292E+00
  weight for this iteration     100.00

 eigenvalues of (default mixing * dielectric matrix)
  average eigenvalue GAMMA=   1.5457
  2.3871  0.9429  1.3069

 Free energy of the ion-electron system (eV)
  ---------------------------------------------------
  alpha Z        PSCENC =         0.51957394
  Ewald energy   TEWEN  =      6065.25672680
  -Hartree energ DENC   =     -8025.69975470
  -exchange      EXHF   =         0.00000000
  -V(xc)+E(xc)   XCENC  =       213.29058289
  PAW double counting   =      4576.96733432    -4588.28775143
  entropy T*S    EENTRO =         0.00000000
  eigenvalues    EBANDS =      -797.59753386
  atomic energy  EATOM  =      2425.98333211
  Solvation  Ediel_sol  =         0.00000000
  ---------------------------------------------------
  free energy    TOTEN  =      -129.56748992 eV

  energy without entropy =     -129.56748992  energy(sigma->0) =     -129.56748992


--------------------------------------------------------------------------------------------------------




----------------------------------------- Iteration    1(   9)  ---------------------------------------


    POTLOK:  cpu time   22.4366: real time   22.4187
    SETDIJ:  cpu time    0.0290: real time    0.0289
     EDDAV:  cpu time  327.4962: real time  327.2266
       DOS:  cpu time    0.0000: real time    0.0005
    CHARGE:  cpu time   18.4252: real time   18.4095
    MIXING:  cpu time    0.8279: real time    0.8284
    --------------------------------------------
      LOOP:  cpu time  369.2169: real time  368.9163

 eigenvalue-minimisations  :   464
 total energy-change (2. order) : 0.6719749E-01  (-0.1028167E-01)
 number of electron      57.9999924 magnetization 
 augmentation part        2.5838451 magnetization 

 Broyden mixing:
  rms(total) = 0.56843E-01    rms(broyden)= 0.56814E-01
  rms(prec ) = 0.65140E-01
  weight for this iteration     100.00

 eigenvalues of (default mixing * dielectric matrix)
  average eigenvalue GAMMA=   1.5147
  2.2107  1.0505  1.0505  1.7470

 Free energy of the ion-electron system (eV)
  ---------------------------------------------------
  alpha Z        PSCENC =         0.51957394
  Ewald energy   TEWEN  =      6065.25672680
  -Hartree energ DENC   =     -8039.38511998
  -exchange      EXHF   =         0.00000000
  -V(xc)+E(xc)   XCENC  =       213.84767744
  PAW double counting   =      4815.12128758    -4826.40911183
  entropy T*S    EENTRO =         0.00000000
  eigenvalues    EBANDS =      -784.43465849
  atomic energy  EATOM  =      2425.98333211
  Solvation  Ediel_sol  =         0.00000000
  ---------------------------------------------------
  free energy    TOTEN  =      -129.50029243 eV

  energy without entropy =     -129.50029243  energy(sigma->0) =     -129.50029243


--------------------------------------------------------------------------------------------------------




----------------------------------------- Iteration    1(  10)  ---------------------------------------


    POTLOK:  cpu time   25.5141: real time   25.4938
    SETDIJ:  cpu time    0.0290: real time    0.0289
     EDDAV:  cpu time  316.0969: real time  315.8376
       DOS:  cpu time    0.0000: real time    0.0005
    CHARGE:  cpu time   17.6533: real time   17.6386
    MIXING:  cpu time    0.8489: real time    0.8487
    --------------------------------------------
      LOOP:  cpu time  360.1443: real time  359.8522

 eigenvalue-minimisations  :   432
 total energy-change (2. order) : 0.1013254E-01  (-0.2573667E-02)
 number of electron      57.9999924 magnetization 
 augmentation part        2.5909227 magnetization 

 Broyden mixing:
  rms(total) = 0.25834E-01    rms(broyden)= 0.25811E-01
  rms(prec ) = 0.35568E-01
  weight for this iteration     100.00

 eigenvalues of (default mixing * dielectric matrix)
  average eigenvalue GAMMA=   1.4863
  2.1769  2.1769  0.9478  0.9478  1.1822

 Free energy of the ion-electron system (eV)
  ---------------------------------------------------
  alpha Z        PSCENC =         0.51957394
  Ewald energy   TEWEN  =      6065.25672680
  -Hartree energ DENC   =     -8044.32636760
  -exchange      EXHF   =         0.00000000
  -V(xc)+E(xc)   XCENC  =       213.85718060
  PAW double counting   =      4807.16744192    -4818.40655695
  entropy T*S    EENTRO =         0.00000000
  eigenvalues    EBANDS =      -779.54149073
  atomic energy  EATOM  =      2425.98333211
  Solvation  Ediel_sol  =         0.00000000
  ---------------------------------------------------
  free energy    TOTEN  =      -129.49015990 eV

  energy without entropy =     -129.49015990  energy(sigma->0) =     -129.49015990


--------------------------------------------------------------------------------------------------------




----------------------------------------- Iteration    1(  11)  ---------------------------------------


    POTLOK:  cpu time   22.3096: real time   22.2920
    SETDIJ:  cpu time    0.0290: real time    0.0289
     EDDAV:  cpu time  321.5621: real time  321.2978
       DOS:  cpu time    0.0000: real time    0.0006
    CHARGE:  cpu time   19.0901: real time   19.0737
    MIXING:  cpu time    0.9699: real time    0.9706
    --------------------------------------------
      LOOP:  cpu time  363.9627: real time  363.6711

 eigenvalue-minimisations  :   448
 total energy-change (2. order) : 0.4737233E-02  (-0.7896344E-03)
 number of electron      57.9999924 magnetization 
 augmentation part        2.5865389 magnetization 

 Broyden mixing:
  rms(total) = 0.16024E-01    rms(broyden)= 0.16018E-01
  rms(prec ) = 0.24608E-01
  weight for this iteration     100.00

 eigenvalues of (default mixing * dielectric matrix)
  average eigenvalue GAMMA=   1.5509
  2.4734  2.4734  0.9448  0.9448  1.2346  1.2346

 Free energy of the ion-electron system (eV)
  ---------------------------------------------------
  alpha Z        PSCENC =         0.51957394
  Ewald energy   TEWEN  =      6065.25672680
  -Hartree energ DENC   =     -8050.13594600
  -exchange      EXHF   =         0.00000000
  -V(xc)+E(xc)   XCENC  =       213.96207615
  PAW double counting   =      4810.06598006    -4821.30379040
  entropy T*S    EENTRO =         0.00000000
  eigenvalues    EBANDS =      -773.83337533
  atomic energy  EATOM  =      2425.98333211
  Solvation  Ediel_sol  =         0.00000000
  ---------------------------------------------------
  free energy    TOTEN  =      -129.48542266 eV

  energy without entropy =     -129.48542266  energy(sigma->0) =     -129.48542266


--------------------------------------------------------------------------------------------------------




----------------------------------------- Iteration    1(  12)  ---------------------------------------


    POTLOK:  cpu time   26.3880: real time   26.3673
    SETDIJ:  cpu time    0.0290: real time    0.0287
     EDDAV:  cpu time  287.7563: real time  287.5206
       DOS:  cpu time    0.0000: real time    0.0006
    CHARGE:  cpu time   17.8973: real time   17.8828
    MIXING:  cpu time    0.9828: real time    0.9828
    --------------------------------------------
      LOOP:  cpu time  333.0574: real time  332.7871

 eigenvalue-minimisations  :   381
 total energy-change (2. order) :-0.1388267E-02  (-0.6093756E-03)
 number of electron      57.9999924 magnetization 
 augmentation part        2.5857293 magnetization 

 Broyden mixing:
  rms(total) = 0.97329E-02    rms(broyden)= 0.97282E-02
  rms(prec ) = 0.15640E-01
  weight for this iteration     100.00

 eigenvalues of (default mixing * dielectric matrix)
  average eigenvalue GAMMA=   1.6226
  2.7904  2.7082  1.4654  1.2294  1.2294  0.9676  0.9676

 Free energy of the ion-electron system (eV)
  ---------------------------------------------------
  alpha Z        PSCENC =         0.51957394
  Ewald energy   TEWEN  =      6065.25672680
  -Hartree energ DENC   =     -8057.03413552
  -exchange      EXHF   =         0.00000000
  -V(xc)+E(xc)   XCENC  =       214.05258781
  PAW double counting   =      4805.61448996    -4816.84239178
  entropy T*S    EENTRO =         0.00000000
  eigenvalues    EBANDS =      -767.03699426
  atomic energy  EATOM  =      2425.98333211
  Solvation  Ediel_sol  =         0.00000000
  ---------------------------------------------------
  free energy    TOTEN  =      -129.48681093 eV

  energy without entropy =     -129.48681093  energy(sigma->0) =     -129.48681093


--------------------------------------------------------------------------------------------------------




----------------------------------------- Iteration    1(  13)  ---------------------------------------


    POTLOK:  cpu time   23.1415: real time   23.1229
    SETDIJ:  cpu time    0.0290: real time    0.0296
     EDDAV:  cpu time  302.0521: real time  301.8023
       DOS:  cpu time    0.0000: real time    0.0006
    CHARGE:  cpu time   18.2172: real time   18.2024
    MIXING:  cpu time    1.0748: real time    1.0741
    --------------------------------------------
      LOOP:  cpu time  344.5156: real time  344.2358

 eigenvalue-minimisations  :   424
 total energy-change (2. order) :-0.6613217E-02  (-0.4548728E-03)
 number of electron      57.9999924 magnetization 
 augmentation part        2.5844338 magnetization 

 Broyden mixing:
  rms(total) = 0.56357E-02    rms(broyden)= 0.56304E-02
  rms(prec ) = 0.91066E-02
  weight for this iteration     100.00

 eigenvalues of (default mixing * dielectric matrix)
  average eigenvalue GAMMA=   1.7278
  4.1591  2.4990  1.6257  1.4835  1.0135  1.0135  1.0139  1.0139

 Free energy of the ion-electron system (eV)
  ---------------------------------------------------
  alpha Z        PSCENC =         0.51957394
  Ewald energy   TEWEN  =      6065.25672680
  -Hartree energ DENC   =     -8062.87730879
  -exchange      EXHF   =         0.00000000
  -V(xc)+E(xc)   XCENC  =       214.12099373
  PAW double counting   =      4799.65854761    -4810.88646261
  entropy T*S    EENTRO =         0.00000000
  eigenvalues    EBANDS =      -761.26882695
  atomic energy  EATOM  =      2425.98333211
  Solvation  Ediel_sol  =         0.00000000
  ---------------------------------------------------
  free energy    TOTEN  =      -129.49342415 eV

  energy without entropy =     -129.49342415  energy(sigma->0) =     -129.49342415


--------------------------------------------------------------------------------------------------------




----------------------------------------- Iteration    1(  14)  ---------------------------------------


    POTLOK:  cpu time   24.3443: real time   24.3256
    SETDIJ:  cpu time    0.0290: real time    0.0289
     EDDAV:  cpu time  296.1410: real time  295.8989
       DOS:  cpu time    0.0000: real time    0.0005
    CHARGE:  cpu time   18.9901: real time   18.9752
    MIXING:  cpu time    1.1088: real time    1.1071
    --------------------------------------------
      LOOP:  cpu time  340.6162: real time  340.3399

 eigenvalue-minimisations  :   392
 total energy-change (2. order) :-0.6367731E-02  (-0.1603405E-03)
 number of electron      57.9999924 magnetization 
 augmentation part        2.5839557 magnetization 

 Broyden mixing:
  rms(total) = 0.36881E-02    rms(broyden)= 0.36852E-02
  rms(prec ) = 0.56346E-02
  weight for this iteration     100.00

 eigenvalues of (default mixing * dielectric matrix)
  average eigenvalue GAMMA=   1.8329
  5.0098  2.4256  2.2134  1.3427  1.3427  1.1027  1.1027  0.9781  0.9781

 Free energy of the ion-electron system (eV)
  ---------------------------------------------------
  alpha Z        PSCENC =         0.51957394
  Ewald energy   TEWEN  =      6065.25672680
  -Hartree energ DENC   =     -8066.21336747
  -exchange      EXHF   =         0.00000000
  -V(xc)+E(xc)   XCENC  =       214.14173009
  PAW double counting   =      4794.12017185    -4805.34534094
  entropy T*S    EENTRO =         0.00000000
  eigenvalues    EBANDS =      -757.96261827
  atomic energy  EATOM  =      2425.98333211
  Solvation  Ediel_sol  =         0.00000000
  ---------------------------------------------------
  free energy    TOTEN  =      -129.49979188 eV

  energy without entropy =     -129.49979188  energy(sigma->0) =     -129.49979188


--------------------------------------------------------------------------------------------------------




----------------------------------------- Iteration    1(  15)  ---------------------------------------


    POTLOK:  cpu time   23.6904: real time   23.6718
    SETDIJ:  cpu time    0.0290: real time    0.0288
     EDDAV:  cpu time  283.5259: real time  283.2932
       DOS:  cpu time    0.0000: real time    0.0005
    CHARGE:  cpu time   20.7208: real time   20.7038
    MIXING:  cpu time    1.4348: real time    1.4342
    --------------------------------------------
      LOOP:  cpu time  329.4029: real time  329.1358

 eigenvalue-minimisations  :   398
 total energy-change (2. order) :-0.7694863E-02  (-0.7775735E-04)
 number of electron      57.9999924 magnetization 
 augmentation part        2.5836673 magnetization 

 Broyden mixing:
  rms(total) = 0.22237E-02    rms(broyden)= 0.22227E-02
  rms(prec ) = 0.33543E-02
  weight for this iteration     100.00

 eigenvalues of (default mixing * dielectric matrix)
  average eigenvalue GAMMA=   1.9423
  5.7901  2.9068  2.3756  1.8280  1.2915  1.0720  1.0720  1.0668  1.0102  1.0102

 Free energy of the ion-electron system (eV)
  ---------------------------------------------------
  alpha Z        PSCENC =         0.51957394
  Ewald energy   TEWEN  =      6065.25672680
  -Hartree energ DENC   =     -8067.89510011
  -exchange      EXHF   =         0.00000000
  -V(xc)+E(xc)   XCENC  =       214.14247161
  PAW double counting   =      4793.56599954    -4804.78996145
  entropy T*S    EENTRO =         0.00000000
  eigenvalues    EBANDS =      -756.29052919
  atomic energy  EATOM  =      2425.98333211
  Solvation  Ediel_sol  =         0.00000000
  ---------------------------------------------------
  free energy    TOTEN  =      -129.50748674 eV

  energy without entropy =     -129.50748674  energy(sigma->0) =     -129.50748674


--------------------------------------------------------------------------------------------------------




----------------------------------------- Iteration    1(  16)  ---------------------------------------


    POTLOK:  cpu time   23.1595: real time   23.1411
    SETDIJ:  cpu time    0.0300: real time    0.0294
     EDDAV:  cpu time  261.2963: real time  261.0837
       DOS:  cpu time    0.0000: real time    0.0005
    CHARGE:  cpu time   19.6380: real time   19.6221
    MIXING:  cpu time    1.5678: real time    1.5669
    --------------------------------------------
      LOOP:  cpu time  305.6945: real time  305.4483

 eigenvalue-minimisations  :   332
 total energy-change (2. order) :-0.5880423E-02  (-0.4783725E-04)
 number of electron      57.9999924 magnetization 
 augmentation part        2.5838411 magnetization 

 Broyden mixing:
  rms(total) = 0.13101E-02    rms(broyden)= 0.13095E-02
  rms(prec ) = 0.19177E-02
  weight for this iteration     100.00

 eigenvalues of (default mixing * dielectric matrix)
  average eigenvalue GAMMA=   1.9909
  6.4251  3.2605  2.3182  1.9668  1.4095  1.4095  1.0362  1.0362  1.0169  1.0103
  1.0103

 Free energy of the ion-electron system (eV)
  ---------------------------------------------------
  alpha Z        PSCENC =         0.51957394
  Ewald energy   TEWEN  =      6065.25672680
  -Hartree energ DENC   =     -8068.55845068
  -exchange      EXHF   =         0.00000000
  -V(xc)+E(xc)   XCENC  =       214.13192589
  PAW double counting   =      4793.56764801    -4804.79051560
  entropy T*S    EENTRO =         0.00000000
  eigenvalues    EBANDS =      -755.62360764
  atomic energy  EATOM  =      2425.98333211
  Solvation  Ediel_sol  =         0.00000000
  ---------------------------------------------------
  free energy    TOTEN  =      -129.51336716 eV

  energy without entropy =     -129.51336716  energy(sigma->0) =     -129.51336716


--------------------------------------------------------------------------------------------------------




----------------------------------------- Iteration    1(  17)  ---------------------------------------


    POTLOK:  cpu time   23.9504: real time   23.9306
    SETDIJ:  cpu time    0.0300: real time    0.0308
     EDDAV:  cpu time  255.3762: real time  255.1668
       DOS:  cpu time    0.0000: real time    0.0005
    CHARGE:  cpu time   16.7405: real time   16.7268
    MIXING:  cpu time    1.1738: real time    1.1731
    --------------------------------------------
      LOOP:  cpu time  297.2738: real time  297.0329

 eigenvalue-minimisations  :   334
 total energy-change (2. order) :-0.2740537E-02  (-0.1464502E-04)
 number of electron      57.9999924 magnetization 
 augmentation part        2.5836839 magnetization 

 Broyden mixing:
  rms(total) = 0.77389E-03    rms(broyden)= 0.77348E-03
  rms(prec ) = 0.11414E-02
  weight for this iteration     100.00

 eigenvalues of (default mixing * dielectric matrix)
  average eigenvalue GAMMA=   2.0547
  7.2046  3.6876  2.3440  2.3440  1.5404  1.5404  1.0581  1.0581  1.0225  1.0225
  0.9172  0.9172

 Free energy of the ion-electron system (eV)
  ---------------------------------------------------
  alpha Z        PSCENC =         0.51957394
  Ewald energy   TEWEN  =      6065.25672680
  -Hartree energ DENC   =     -8068.89440452
  -exchange      EXHF   =         0.00000000
  -V(xc)+E(xc)   XCENC  =       214.12871490
  PAW double counting   =      4793.66610542    -4804.88924699
  entropy T*S    EENTRO =         0.00000000
  eigenvalues    EBANDS =      -755.28690937
  atomic energy  EATOM  =      2425.98333211
  Solvation  Ediel_sol  =         0.00000000
  ---------------------------------------------------
  free energy    TOTEN  =      -129.51610770 eV

  energy without entropy =     -129.51610770  energy(sigma->0) =     -129.51610770


--------------------------------------------------------------------------------------------------------




----------------------------------------- Iteration    1(  18)  ---------------------------------------


    POTLOK:  cpu time   21.4177: real time   21.3998
    SETDIJ:  cpu time    0.0280: real time    0.0284
     EDDAV:  cpu time  241.4323: real time  241.2354
       DOS:  cpu time    0.0010: real time    0.0005
    CHARGE:  cpu time   20.0490: real time   20.0336
    MIXING:  cpu time    1.6378: real time    1.6356
    --------------------------------------------
      LOOP:  cpu time  284.5677: real time  284.3407

 eigenvalue-minimisations  :   303
 total energy-change (2. order) :-0.1442481E-02  (-0.9613032E-05)
 number of electron      57.9999924 magnetization 
 augmentation part        2.5836464 magnetization 

 Broyden mixing:
  rms(total) = 0.53481E-03    rms(broyden)= 0.53463E-03
  rms(prec ) = 0.74724E-03
  weight for this iteration     100.00

 eigenvalues of (default mixing * dielectric matrix)
  average eigenvalue GAMMA=   2.0984
  7.6064  4.2781  2.4426  2.3308  1.7183  1.4385  1.4385  1.0501  1.0501  0.9521
  0.9521  1.0110  1.0110

 Free energy of the ion-electron system (eV)
  ---------------------------------------------------
  alpha Z        PSCENC =         0.51957394
  Ewald energy   TEWEN  =      6065.25672680
  -Hartree energ DENC   =     -8069.04395606
  -exchange      EXHF   =         0.00000000
  -V(xc)+E(xc)   XCENC  =       214.12636531
  PAW double counting   =      4793.85374053    -4805.07677208
  entropy T*S    EENTRO =         0.00000000
  eigenvalues    EBANDS =      -755.13656074
  atomic energy  EATOM  =      2425.98333211
  Solvation  Ediel_sol  =         0.00000000
  ---------------------------------------------------
  free energy    TOTEN  =      -129.51755018 eV

  energy without entropy =     -129.51755018  energy(sigma->0) =     -129.51755018


--------------------------------------------------------------------------------------------------------




----------------------------------------- Iteration    1(  19)  ---------------------------------------


    POTLOK:  cpu time   24.5523: real time   24.5339
    SETDIJ:  cpu time    0.0290: real time    0.0292
     EDDAV:  cpu time  244.9888: real time  244.7879
       DOS:  cpu time    0.0000: real time    0.0005
    CHARGE:  cpu time   18.3482: real time   18.3334
    MIXING:  cpu time    1.5488: real time    1.5477
    --------------------------------------------
      LOOP:  cpu time  289.4700: real time  289.2364

 eigenvalue-minimisations  :   302
 total energy-change (2. order) :-0.8339165E-03  (-0.4245795E-05)
 number of electron      57.9999924 magnetization 
 augmentation part        2.5836390 magnetization 

 Broyden mixing:
  rms(total) = 0.31473E-03    rms(broyden)= 0.31459E-03
  rms(prec ) = 0.44273E-03
  weight for this iteration     100.00

 eigenvalues of (default mixing * dielectric matrix)
  average eigenvalue GAMMA=   2.1515
  8.1338  4.7697  2.6442  2.6442  1.6478  1.6478  1.5849  1.0704  1.0704  0.9526
  0.9781  0.9781  0.9991  0.9991

 Free energy of the ion-electron system (eV)
  ---------------------------------------------------
  alpha Z        PSCENC =         0.51957394
  Ewald energy   TEWEN  =      6065.25672680
  -Hartree energ DENC   =     -8069.10204248
  -exchange      EXHF   =         0.00000000
  -V(xc)+E(xc)   XCENC  =       214.12545152
  PAW double counting   =      4794.10094372    -4805.32396474
  entropy T*S    EENTRO =         0.00000000
  eigenvalues    EBANDS =      -755.07840497
  atomic energy  EATOM  =      2425.98333211
  Solvation  Ediel_sol  =         0.00000000
  ---------------------------------------------------
  free energy    TOTEN  =      -129.51838410 eV

  energy without entropy =     -129.51838410  energy(sigma->0) =     -129.51838410


--------------------------------------------------------------------------------------------------------




----------------------------------------- Iteration    1(  20)  ---------------------------------------


    POTLOK:  cpu time   23.6394: real time   23.6200
    SETDIJ:  cpu time    0.0290: real time    0.0290
     EDDAV:  cpu time  236.6600: real time  236.4649
       DOS:  cpu time    0.0000: real time    0.0006
    CHARGE:  cpu time   20.7758: real time   20.7591
    MIXING:  cpu time    1.9487: real time    1.9474
    --------------------------------------------
      LOOP:  cpu time  283.0540: real time  282.8250

 eigenvalue-minimisations  :   318
 total energy-change (2. order) :-0.4343479E-03  (-0.1989072E-05)
 number of electron      57.9999924 magnetization 
 augmentation part        2.5836357 magnetization 

 Broyden mixing:
  rms(total) = 0.23679E-03    rms(broyden)= 0.23674E-03
  rms(prec ) = 0.30007E-03
  weight for this iteration     100.00

 eigenvalues of (default mixing * dielectric matrix)
  average eigenvalue GAMMA=   2.1595
  8.2594  5.2733  2.8191  2.3459  2.2782  1.5838  1.2929  1.2929  1.0442  1.0442
  1.0039  0.9843  0.9843  1.0930  1.0930

 Free energy of the ion-electron system (eV)
  ---------------------------------------------------
  alpha Z        PSCENC =         0.51957394
  Ewald energy   TEWEN  =      6065.25672680
  -Hartree energ DENC   =     -8069.12664374
  -exchange      EXHF   =         0.00000000
  -V(xc)+E(xc)   XCENC  =       214.12437707
  PAW double counting   =      4793.72974906    -4804.95268806
  entropy T*S    EENTRO =         0.00000000
  eigenvalues    EBANDS =      -755.05324562
  atomic energy  EATOM  =      2425.98333211
  Solvation  Ediel_sol  =         0.00000000
  ---------------------------------------------------
  free energy    TOTEN  =      -129.51881845 eV

  energy without entropy =     -129.51881845  energy(sigma->0) =     -129.51881845


--------------------------------------------------------------------------------------------------------




----------------------------------------- Iteration    1(  21)  ---------------------------------------


    POTLOK:  cpu time   23.2965: real time   23.2783
    SETDIJ:  cpu time    0.0300: real time    0.0297
     EDDAV:  cpu time  263.6429: real time  263.4276
       DOS:  cpu time    0.0000: real time    0.0006
    CHARGE:  cpu time   18.7811: real time   18.7665
    MIXING:  cpu time    1.8067: real time    1.8047
    --------------------------------------------
      LOOP:  cpu time  307.5602: real time  307.3158

 eigenvalue-minimisations  :   328
 total energy-change (2. order) :-0.1820284E-03  (-0.7533320E-06)
 number of electron      57.9999924 magnetization 
 augmentation part        2.5836211 magnetization 

 Broyden mixing:
  rms(total) = 0.11954E-03    rms(broyden)= 0.11948E-03
  rms(prec ) = 0.16689E-03
  weight for this iteration     100.00

 eigenvalues of (default mixing * dielectric matrix)
  average eigenvalue GAMMA=   2.2223
  8.4974  5.7986  3.4065  2.6296  2.3650  1.6207  1.6207  1.1860  1.1860  1.2430
  1.0209  1.0209  1.1202  0.9210  0.9600  0.9600

 Free energy of the ion-electron system (eV)
  ---------------------------------------------------
  alpha Z        PSCENC =         0.51957394
  Ewald energy   TEWEN  =      6065.25672680
  -Hartree energ DENC   =     -8069.13324608
  -exchange      EXHF   =         0.00000000
  -V(xc)+E(xc)   XCENC  =       214.12420657
  PAW double counting   =      4793.86425736    -4805.08725271
  entropy T*S    EENTRO =         0.00000000
  eigenvalues    EBANDS =      -755.04659846
  atomic energy  EATOM  =      2425.98333211
  Solvation  Ediel_sol  =         0.00000000
  ---------------------------------------------------
  free energy    TOTEN  =      -129.51900047 eV

  energy without entropy =     -129.51900047  energy(sigma->0) =     -129.51900047


--------------------------------------------------------------------------------------------------------




----------------------------------------- Iteration    1(  22)  ---------------------------------------


    POTLOK:  cpu time   24.0893: real time   24.0695
    SETDIJ:  cpu time    0.0290: real time    0.0290
     EDDAV:  cpu time  222.3482: real time  222.1674
       DOS:  cpu time    0.0000: real time    0.0005
    CHARGE:  cpu time   17.2314: real time   17.2166
    MIXING:  cpu time    1.5308: real time    1.5300
    --------------------------------------------
      LOOP:  cpu time  265.2307: real time  265.0167

 eigenvalue-minimisations  :   271
 total energy-change (2. order) :-0.1391900E-03  (-0.3892065E-06)
 number of electron      57.9999924 magnetization 
 augmentation part        2.5836272 magnetization 

 Broyden mixing:
  rms(total) = 0.11082E-03    rms(broyden)= 0.11079E-03
  rms(prec ) = 0.12741E-03
  weight for this iteration     100.00

 eigenvalues of (default mixing * dielectric matrix)
  average eigenvalue GAMMA=   2.2178
  8.6327  6.1253  3.7256  2.5409  2.1846  2.1846  1.2997  1.2997  1.4892  1.0364
  1.0364  1.1558  1.0929  1.0929  0.8988  0.9538  0.9538

 Free energy of the ion-electron system (eV)
  ---------------------------------------------------
  alpha Z        PSCENC =         0.51957394
  Ewald energy   TEWEN  =      6065.25672680
  -Hartree energ DENC   =     -8069.15014656
  -exchange      EXHF   =         0.00000000
  -V(xc)+E(xc)   XCENC  =       214.12392371
  PAW double counting   =      4793.72994647    -4804.95292070
  entropy T*S    EENTRO =         0.00000000
  eigenvalues    EBANDS =      -755.02957544
  atomic energy  EATOM  =      2425.98333211
  Solvation  Ediel_sol  =         0.00000000
  ---------------------------------------------------
  free energy    TOTEN  =      -129.51913966 eV

  energy without entropy =     -129.51913966  energy(sigma->0) =     -129.51913966


--------------------------------------------------------------------------------------------------------




----------------------------------------- Iteration    1(  23)  ---------------------------------------


    POTLOK:  cpu time   22.5656: real time   22.5473
    SETDIJ:  cpu time    0.0280: real time    0.0285
     EDDAV:  cpu time  266.9564: real time  266.7372
       DOS:  cpu time    0.0000: real time    0.0005
    --------------------------------------------
      LOOP:  cpu time  289.5520: real time  289.3166

 eigenvalue-minimisations  :   352
 total energy-change (2. order) :-0.3482876E-04  (-0.9967363E-07)
 number of electron      57.9999924 magnetization 
 augmentation part        2.5836272 magnetization 

 Free energy of the ion-electron system (eV)
  ---------------------------------------------------
  alpha Z        PSCENC =         0.51957394
  Ewald energy   TEWEN  =      6065.25672680
  -Hartree energ DENC   =     -8069.15593194
  -exchange      EXHF   =         0.00000000
  -V(xc)+E(xc)   XCENC  =       214.12387325
  PAW double counting   =      4793.74179855    -4804.96474247
  entropy T*S    EENTRO =         0.00000000
  eigenvalues    EBANDS =      -755.02380472
  atomic energy  EATOM  =      2425.98333211
  Solvation  Ediel_sol  =         0.00000000
  ---------------------------------------------------
  free energy    TOTEN  =      -129.51917449 eV

  energy without entropy =     -129.51917449  energy(sigma->0) =     -129.51917449


--------------------------------------------------------------------------------------------------------




 average (electrostatic) potential at core
  the test charge radii are     0.5201  0.6991  0.7089  0.7215
  (the norm of the test charge is              1.0000)
       1 -42.2669       2 -42.5274       3 -42.5005       4 -44.7049       5 -42.2420
       6 -41.9093       7 -41.8461       8 -41.9893       9 -43.6342      10 -41.8218
      11 -41.8053      12 -42.1101      13 -59.0362      14 -61.3712      15 -59.8939
      16 -58.6230      17 -60.7829      18 -59.1964      19 -74.6858      20 -74.0248
      21 -79.8492      22 -79.3844
 
 
 
 E-fermi :  -4.4818     XC(G=0):  -0.1531     alpha+bet : -0.0465


 k-point     1 :       0.2500    0.2500    0.2500
  band No.  band energies     occupation 
      1     -26.0993      2.00000
      2     -25.6273      2.00000
      3     -23.3726      2.00000
      4     -22.7482      2.00000
      5     -19.5586      2.00000
      6     -18.2118      2.00000
      7     -17.5661      2.00000
      8     -15.7593      2.00000
      9     -14.9073      2.00000
     10     -14.0819      2.00000
     11     -13.1199      2.00000
     12     -12.2236      2.00000
     13     -11.9930      2.00000
     14     -11.3518      2.00000
     15     -11.0889      2.00000
     16     -10.7315      2.00000
     17     -10.2242      2.00000
     18     -10.1239      2.00000
     19      -9.8893      2.00000
     20      -9.5466      2.00000
     21      -9.3856      2.00000
     22      -9.1608      2.00000
     23      -9.0723      2.00000
     24      -8.8151      2.00000
     25      -8.5655      2.00000
     26      -6.7685      2.00000
     27      -6.1430      2.00000
     28      -5.8971      2.00000
     29      -5.4790      2.00000
     30      -1.0415      0.00000
     31      -0.8737      0.00000
     32      -0.5024      0.00000
     33      -0.3323      0.00000
     34      -0.1904      0.00000
     35      -0.0655      0.00000
     36       0.0164      0.00000
     37       0.0996      0.00000
     38       0.1076      0.00000
     39       0.1103      0.00000
     40       0.1574      0.00000
     41       0.1791      0.00000

 k-point     2 :      -0.2500    0.2500    0.2500
  band No.  band energies     occupation 
      1     -26.0993      2.00000
      2     -25.6272      2.00000
      3     -23.3726      2.00000
      4     -22.7482      2.00000
      5     -19.5586      2.00000
      6     -18.2118      2.00000
      7     -17.5661      2.00000
      8     -15.7593      2.00000
      9     -14.9073      2.00000
     10     -14.0819      2.00000
     11     -13.1199      2.00000
     12     -12.2236      2.00000
     13     -11.9930      2.00000
     14     -11.3518      2.00000
     15     -11.0889      2.00000
     16     -10.7315      2.00000
     17     -10.2242      2.00000
     18     -10.1239      2.00000
     19      -9.8893      2.00000
     20      -9.5466      2.00000
     21      -9.3856      2.00000
     22      -9.1607      2.00000
     23      -9.0723      2.00000
     24      -8.8151      2.00000
     25      -8.5655      2.00000
     26      -6.7685      2.00000
     27      -6.1430      2.00000
     28      -5.8971      2.00000
     29      -5.4790      2.00000
     30      -1.0415      0.00000
     31      -0.8737      0.00000
     32      -0.5024      0.00000
     33      -0.3323      0.00000
     34      -0.1905      0.00000
     35      -0.0668      0.00000
     36       0.0236      0.00000
     37       0.0888      0.00000
     38       0.1002      0.00000
     39       0.1175      0.00000
     40       0.1627      0.00000
     41       0.1703      0.00000

 k-point     3 :       0.2500   -0.2500    0.2500
  band No.  band energies     occupation 
      1     -26.0993      2.00000
      2     -25.6273      2.00000
      3     -23.3726      2.00000
      4     -22.7482      2.00000
      5     -19.5586      2.00000
      6     -18.2118      2.00000
      7     -17.5661      2.00000
      8     -15.7593      2.00000
      9     -14.9073      2.00000
[...]

 Free energy of the ion-electron system (eV)
  ---------------------------------------------------
  alpha Z        PSCENC =         0.51957394
  Ewald energy   TEWEN  =      6067.67030221
  -Hartree energ DENC   =     -8071.30150010
  -exchange      EXHF   =         0.00000000
  -V(xc)+E(xc)   XCENC  =       214.08720805
  PAW double counting   =      4787.28737002    -4798.50510177
  entropy T*S    EENTRO =         0.00000000
  eigenvalues    EBANDS =      -755.27273779
  atomic energy  EATOM  =      2425.98333211
  Solvation  Ediel_sol  =         0.00000000
  ---------------------------------------------------
  free energy    TOTEN  =      -129.53155332 eV

  energy without entropy =     -129.53155332  energy(sigma->0) =     -129.53155332


--------------------------------------------------------------------------------------------------------




 average (electrostatic) potential at core
  the test charge radii are     0.5201  0.6991  0.7089  0.7215
  (the norm of the test charge is              1.0000)
       1 -42.2751       2 -42.5320       3 -42.5081       4 -44.7159       5 -42.2643
       6 -41.9032       7 -41.8482       8 -41.9880       9 -43.5981      10 -41.8058
      11 -41.7948      12 -42.0981      13 -59.0479      14 -61.3931      15 -59.9147
      16 -58.6272      17 -60.7890      18 -59.1944      19 -74.6953      20 -74.0300
      21 -79.8819      22 -79.3709
 
 
 
 E-fermi :  -4.4773     XC(G=0):  -0.1344     alpha+bet : -0.0465


 k-point     1 :       0.2500    0.2500    0.2500
  band No.  band energies     occupation 
      1     -26.1385      2.00000
      2     -25.5952      2.00000
      3     -23.3889      2.00000
      4     -22.7448      2.00000
      5     -19.5592      2.00000
      6     -18.2108      2.00000
      7     -17.5632      2.00000
      8     -15.7678      2.00000
      9     -14.9124      2.00000
     10     -14.0791      2.00000
     11     -13.1250      2.00000
     12     -12.2426      2.00000
     13     -11.9979      2.00000
     14     -11.3449      2.00000
     15     -11.1010      2.00000
     16     -10.7287      2.00000
     17     -10.2212      2.00000
     18     -10.1161      2.00000
     19      -9.9179      2.00000
     20      -9.5486      2.00000
     21      -9.3901      2.00000
     22      -9.1512      2.00000
     23      -9.0712      2.00000
     24      -8.8263      2.00000
     25      -8.5677      2.00000
     26      -6.7794      2.00000
     27      -6.1623      2.00000
     28      -5.9063      2.00000
     29      -5.4779      2.00000
     30      -1.0639      0.00000
     31      -0.8752      0.00000
     32      -0.5017      0.00000
     33      -0.3267      0.00000
     34      -0.2001      0.00000
     35      -0.0725      0.00000
     36       0.0381      0.00000
     37       0.1211      0.00000
     38       0.1278      0.00000
     39       0.1321      0.00000
     40       0.1752      0.00000
     41       0.1927      0.00000

 k-point     2 :      -0.2500    0.2500    0.2500
  band No.  band energies     occupation 
      1     -26.1385      2.00000
      2     -25.5952      2.00000
      3     -23.3889      2.00000
      4     -22.7448      2.00000
      5     -19.5592      2.00000
      6     -18.2108      2.00000
      7     -17.5632      2.00000
      8     -15.7678      2.00000
      9     -14.9124      2.00000
     10     -14.0791      2.00000
     11     -13.1250      2.00000
     12     -12.2426      2.00000
     13     -11.9979      2.00000
     14     -11.3449      2.00000
     15     -11.1010      2.00000
     16     -10.7287      2.00000
     17     -10.2212      2.00000
     18     -10.1161      2.00000
     19      -9.9179      2.00000
     20      -9.5486      2.00000
     21      -9.3901      2.00000
     22      -9.1512      2.00000
     23      -9.0712      2.00000
     24      -8.8263      2.00000
     25      -8.5677      2.00000
     26      -6.7794      2.00000
     27      -6.1623      2.00000
     28      -5.9063      2.00000
     29      -5.4779      2.00000
     30      -1.0639      0.00000
     31      -0.8752      0.00000
     32      -0.5017      0.00000
     33      -0.3267      0.00000
     34      -0.2001      0.00000
     35      -0.0731      0.00000
     36       0.0442      0.00000
     37       0.1098      0.00000
     38       0.1202      0.00000
     39       0.1397      0.00000
     40       0.1816      0.00000
     41       0.1896      0.00000

 k-point     3 :       0.2500   -0.2500    0.2500
  band No.  band energies     occupation 
      1     -26.1385      2.00000
      2     -25.5952      2.00000
      3     -23.3889      2.00000
      4     -22.7448      2.00000
      5     -19.5592      2.00000
      6     -18.2108      2.00000
      7     -17.5632      2.00000
      8     -15.7678      2.00000
      9     -14.9124      2.00000
     10     -14.0791      2.00000
     11     -13.1250      2.00000
     12     -12.2426      2.00000
     13     -11.9979      2.00000
     14     -11.3449      2.00000
     15     -11.1010      2.00000
     16     -10.7287      2.00000
     17     -10.2213      2.00000
     18     -10.1161      2.00000
     19      -9.9179      2.00000
     20      -9.5486      2.00000
     21      -9.3901      2.00000
     22      -9.1512      2.00000
     23      -9.0712      2.00000
     24      -8.8263      2.00000
     25      -8.5677      2.00000
     26      -6.7794      2.00000
     27      -6.1623      2.00000
     28      -5.9063      2.00000
     29      -5.4779      2.00000
     30      -1.0639      0.00000
     31      -0.8752      0.00000
     32      -0.5018      0.00000
     33      -0.3267      0.00000
     34      -0.2002      0.00000
     35      -0.0724      0.00000
     36       0.0428      0.00000
     37       0.1042      0.00000
     38       0.1297      0.00000
     39       0.1364      0.00000
     40       0.1767      0.00000
     41       0.1951      0.00000

 k-point     4 :      -0.2500   -0.2500    0.2500
  band No.  band energies     occupation 
      1     -26.1385      2.00000
      2     -25.5952      2.00000
      3     -23.3889      2.00000
      4     -22.7448      2.00000
      5     -19.5592      2.00000
      6     -18.2108      2.00000
      7     -17.5632      2.00000
      8     -15.7678      2.00000
      9     -14.9124      2.00000
     10     -14.0791      2.00000
     11     -13.1250      2.00000
     12     -12.2426      2.00000
     13     -11.9979      2.00000
     14     -11.3449      2.00000
     15     -11.1010      2.00000
     16     -10.7287      2.00000
     17     -10.2212      2.00000
     18     -10.1161      2.00000
     19      -9.9179      2.00000
     20      -9.5486      2.00000
     21      -9.3901      2.00000
     22      -9.1512      2.00000
     23      -9.0712      2.00000
     24      -8.8263      2.00000
     25      -8.5677      2.00000
     26      -6.7794      2.00000
     27      -6.1623      2.00000
     28      -5.9063      2.00000
     29      -5.4780      2.00000
     30      -1.0639      0.00000
     31      -0.8752      0.00000
     32      -0.5017      0.00000
     33      -0.3267      0.00000
     34      -0.2001      0.00000
     35      -0.0730      0.00000
     36       0.0448      0.00000
     37       0.1087      0.00000
     38       0.1272      0.00000
     39       0.1298      0.00000
     40       0.1794      0.00000
     41       0.1959      0.00000


--------------------------------------------------------------------------------------------------------


 soft charge-density along one line, spin component           1
         0         1         2         3         4         5         6         7         8         9
 total charge-density along one line
 
 pseudopotential strength for first ion, spin component:           1
 -2.352  -4.054   0.002   0.000  -0.001
 -4.054  -6.903   0.005   0.000  -0.002
  0.002   0.005  -0.332   0.000  -0.002
  0.000   0.000   0.000  -0.336   0.000
 -0.001  -0.002  -0.002   0.000  -0.336
 total augmentation occupancy for first ion, spin component:           1
  3.533  -0.636  -0.407  -0.022   0.173
 -0.636   0.129   0.075   0.004  -0.032
 -0.407   0.075   0.048   0.002  -0.017
 -0.022   0.004   0.002   0.009  -0.001
  0.173  -0.032  -0.017  -0.001   0.015


------------------------ aborting loop because EDIFF is reached ----------------------------------------


    CHARGE:  cpu time   16.9334: real time   16.9190
    FORLOC:  cpu time    5.7961: real time    5.7914
    FORNL :  cpu time   61.8526: real time   61.8019
    STRESS:  cpu time  188.1824: real time  188.0259
    FORCOR:  cpu time   24.1803: real time   24.1613
    FORHAR:  cpu time   10.6354: real time   10.6259
    MIXING:  cpu time    0.7839: real time    0.7836
    OFIELD:  cpu time    0.0000: real time    0.0000

  FORCE on cell =-STRESS in cart. coord.  units (eV):
  Direction    XX          YY          ZZ          XY          YZ          ZX
  --------------------------------------------------------------------------------------
  Alpha Z     0.51957     0.51957     0.51957
  Ewald    2691.23190  2521.89466   854.54252  -121.03678   -75.58181  -918.90910
  Hartree  3298.64169  2983.82652  1788.83336  -105.86133  -158.82910  -754.31006
  E(xc)    -230.33688  -229.41214  -231.35795    -0.09777     0.72427    -0.68980
  Local   -6604.29034 -6091.99710 -3265.90588   226.66255   264.19132  1662.88235
  n-local  -132.23904  -134.44116  -133.35395     0.28649    -2.41059     0.86438
  augment    14.81461    14.21085    14.34475    -0.18185    -1.02701     0.03117
  Kinetic   957.77972   931.98432   968.59628     0.15075   -26.89133    10.13478
  Fock        0.00000     0.00000     0.00000     0.00000     0.00000     0.00000
  -------------------------------------------------------------------------------------
  Total      -3.87877    -3.41448    -3.78131    -0.07793     0.17574     0.00373
  in kB      -0.23017    -0.20261    -0.22438    -0.00462     0.01043     0.00022
  external pressure =       -0.22 kB  Pullay stress =        0.00 kB


 VOLUME and BASIS-vectors are now :
 -----------------------------------------------------------------------------
  energy-cutoff  :      400.00
  volume of cell :    27000.00
      direct lattice vectors                 reciprocal lattice vectors
    30.000000000  0.000000000  0.000000000     0.033333333  0.000000000  0.000000000
     0.000000000 30.000000000  0.000000000     0.000000000  0.033333333  0.000000000
     0.000000000  0.000000000 30.000000000     0.000000000  0.000000000  0.033333333

  length of vectors
    30.000000000 30.000000000 30.000000000     0.033333333  0.033333333  0.033333333


 FORCES acting on ions
    electron-ion (+dipol)            ewald-force                    non-local-force                 convergence-correction
 -----------------------------------------------------------------------------------------------
   0.618E+02 -.605E+02 -.109E+01   -.640E+02 0.657E+02 0.135E+01   0.223E+01 -.521E+01 -.278E+00   0.179E-06 0.354E-07 -.102E-04
   0.539E+02 0.241E+02 0.595E+02   -.553E+02 -.263E+02 -.643E+02   0.139E+01 0.225E+01 0.480E+01   0.120E-05 0.772E-05 -.384E-05
   0.617E+02 0.345E+02 -.487E+02   -.640E+02 -.375E+02 0.527E+02   0.226E+01 0.300E+01 -.398E+01   -.422E-05 -.738E-06 -.842E-05
   0.610E+02 0.875E+02 0.409E+02   -.645E+02 -.933E+02 -.439E+02   0.348E+01 0.580E+01 0.301E+01   -.971E-05 0.402E-05 -.141E-04
   -.297E+02 -.187E+02 -.921E+02   0.306E+02 0.215E+02 0.969E+02   -.946E+00 -.284E+01 -.482E+01   -.326E-05 0.808E-05 0.586E-06
   -.721E+02 0.424E+02 -.322E+02   0.775E+02 -.431E+02 0.334E+02   -.542E+01 0.611E+00 -.119E+01   0.341E-05 -.351E-05 -.810E-05
   0.358E+01 0.764E+02 0.447E+02   -.427E+01 -.792E+02 -.494E+02   0.693E+00 0.281E+01 0.472E+01   -.293E-05 0.406E-05 -.142E-04
   0.240E+02 0.609E+02 -.608E+02   -.269E+02 -.632E+02 0.648E+02   0.294E+01 0.228E+01 -.405E+01   -.700E-05 -.483E-05 -.155E-05
   0.226E+02 -.738E+02 -.434E+02   -.275E+02 0.770E+02 0.480E+02   0.482E+01 -.313E+01 -.451E+01   -.105E-04 0.109E-04 -.885E-05
   -.843E+02 -.800E+01 0.227E+02   0.896E+02 0.602E+01 -.231E+02   -.528E+01 0.197E+01 0.459E+00   -.204E-06 0.505E-05 -.845E-05
   0.952E+01 -.248E+02 0.819E+02   -.117E+02 0.245E+02 -.869E+02   0.221E+01 0.291E+00 0.507E+01   -.840E-05 0.938E-06 -.127E-04
   -.198E+02 -.852E+02 -.276E+01   0.200E+02 0.906E+02 0.438E+01   -.175E+00 -.541E+01 -.162E+01   -.448E-05 -.506E-06 -.973E-05
   0.226E+03 -.573E+01 0.106E+02   -.226E+03 0.672E+01 -.107E+02   0.851E+00 -.991E+00 0.758E-01   -.896E-05 0.174E-04 -.765E-04
   0.182E+03 0.618E+00 -.767E+01   -.187E+03 -.284E+00 0.708E+01   0.500E+01 -.333E+00 0.583E+00   -.542E-04 0.173E-04 -.624E-04
   -.599E+02 0.731E+02 -.116E+03   0.656E+02 -.737E+02 0.117E+03   -.566E+01 0.611E+00 -.141E+01   -.309E-04 0.137E-05 -.643E-04
   -.538E+02 0.219E+03 -.790E+02   0.543E+02 -.220E+03 0.788E+02   -.509E+00 0.108E+01 0.141E+00   -.209E-04 -.242E-04 -.798E-04
   -.441E+02 0.152E+02 -.141E+02   0.414E+02 -.174E+02 0.170E+02   0.269E+01 0.223E+01 -.293E+01   0.105E-04 -.512E-04 -.136E-03
   -.119E+03 -.170E+03 0.126E+03   0.122E+03 0.172E+03 -.130E+03   -.294E+01 -.238E+01 0.380E+01   -.258E-04 0.493E-04 -.302E-04
   0.135E+03 0.170E+03 0.346E+02   -.132E+03 -.170E+03 -.348E+02   -.221E+01 0.299E+00 0.239E+00   -.672E-04 0.814E-05 -.924E-04
   -.701E+02 -.207E+03 -.194E+02   0.722E+02 0.210E+03 0.229E+02   -.211E+01 -.270E+01 -.349E+01   -.187E-04 0.302E-04 -.728E-04
   0.229E+02 -.359E+03 -.207E+03   -.329E+01 0.402E+03 0.226E+03   -.196E+02 -.438E+02 -.195E+02   -.595E-04 0.554E-04 -.630E-04
   -.266E+03 0.224E+03 0.293E+03   0.294E+03 -.253E+03 -.328E+03   -.277E+02 0.291E+02 0.350E+02   -.454E-04 -.637E-04 -.190E-03
 -----------------------------------------------------------------------------------------------
   0.440E+02 0.145E+02 -.102E+02   0.568E-13 -.284E-13 -.568E-13   -.440E+02 -.145E+02 0.102E+02   -.367E-03 0.714E-04 -.966E-03
 
 
 POSITION                                       TOTAL-FORCE (eV/Angst)
 -----------------------------------------------------------------------------------
     11.39959     16.34923     15.47086         0.006763      0.004309     -0.014297
     11.57158     14.87955     14.45956         0.006146     -0.004956     -0.001228
     11.38933     14.73253     16.22247        -0.001298      0.011180     -0.000248
     13.56105     13.53111     14.88971         0.002869      0.002186     -0.003524
     15.65524     14.72725     16.52400         0.001819     -0.004190      0.003999
     16.88512     12.59684     16.00908        -0.000223     -0.004633     -0.000349
     15.65409     12.14949     14.82714        -0.000290      0.000513     -0.003172
     15.22282     12.26121     16.56946        -0.002100     -0.005042     -0.002623
     15.66788     16.63221     15.15152        -0.004903     -0.002688      0.002026
     18.11106     16.59500     13.47129        -0.007099      0.001476     -0.004632
     16.63102     16.91897     12.54450        -0.011636      0.002989      0.001349
     17.10281     18.01799     13.87800        -0.005667      0.000496      0.002141
     11.83271     15.34455     15.42167         0.004481      0.002752     -0.004112
     13.33174     15.44200     15.62016         0.003298      0.000853      0.001319
     15.47354     14.17462     15.58713         0.002197     -0.001889      0.003578
     15.82155     12.70507     15.76123        -0.001035     -0.003550     -0.000745
     16.34634     14.83058     14.48242         0.000422      0.002003      0.008009
     17.08143     16.97168     13.54940        -0.006765      0.001512      0.001211
     14.04390     14.32577     15.30128         0.002829     -0.000522      0.001839
     16.34246     16.18610     14.51996        -0.003130     -0.000376      0.001218
     13.87935     16.46260     16.07390         0.002445     -0.000922      0.004003
     16.99537     14.16569     13.66531         0.010878     -0.001501      0.004239
 -----------------------------------------------------------------------------------
    total drift:                                0.001545      0.001026     -0.002799


--------------------------------------------------------------------------------------------------------



  FREE ENERGIE OF THE ION-ELECTRON SYSTEM (eV)
  ---------------------------------------------------
  free  energy   TOTEN  =      -129.53155332 eV

  energy  without entropy=     -129.53155332  energy(sigma->0) =     -129.53155332
 
 d Force = 0.1652753E-04[ 0.165E-04, 0.166E-04]  d Energy = 0.1658683E-04-0.593E-07
 d Force =-0.7936595E-02[-0.793E-02,-0.795E-02]  d Ewald  =-0.7936595E-02 0.198E-09


--------------------------------------------------------------------------------------------------------


    POTLOK:  cpu time   21.8717: real time   21.8531


--------------------------------------------------------------------------------------------------------


 NEB: the previous image is higher in energy: F
 NEB: the next image is higher in energy    : F
 NEB: image is at an extrema
 NEB: diff energy (min, max):     0.000812    0.001172

 NEB: Tangent
 ----------------------------------------------
     -0.02630     -0.05030     -0.06862
      0.01021     -0.00104     -0.13522
     -0.05588     -0.08615     -0.14912
      0.00449      0.01068     -0.20020
     -0.07200     -0.13895     -0.00204
     -0.04513     -0.08728     -0.14788
      0.00680      0.02436     -0.24148
     -0.06976     -0.13894     -0.25283
     -0.01568     -0.01139      0.17089
      0.08974      0.16425      0.33440
      0.15485      0.19526      0.24299
      0.02286      0.10938      0.35779
     -0.02530     -0.04838     -0.10309
     -0.03377     -0.06113     -0.03776
     -0.02815     -0.05028     -0.06105
     -0.03439     -0.06410     -0.18358
      0.02519      0.05287      0.04439
      0.07437      0.13358      0.28094
     -0.01547     -0.02647     -0.11150
      0.01660      0.04723      0.16459
     -0.05725     -0.10358      0.07741
      0.07395      0.13043      0.02094

 NEB: forces: par spring, perp REAL, dneb     0.007589    0.035557    0.000000
 NEB: distance to prev, next image, angle between     1.333111    1.331593  168.879109
 NEB: projections on to tangent (spring, REAL)    -0.007589    0.003763

 stress matrix after NEB project (eV)
     -3.87877     -0.07793      0.00373
     -0.07793     -3.41448      0.17574
      0.00373      0.17574     -3.78131
  FORCES: max atom, RMS     0.016013    0.007752
  FORCE total and by dimension    0.036358    0.013518
  Stress total and by dimension    6.409038    3.878769
 OPT: skip step - force has converged


--------------------------------------------------------------------------------------------------------


  
 reached required accuracy - stopping structural energy minimisation
     LOOP+:  cpu time 1818.8035: real time 1817.3513
    4ORBIT:  cpu time    0.0000: real time    0.0000

 total amount of memory used by VASP on root node  4333708. kBytes
========================================================================

   base      :      30000. kBytes
   nonlr-proj:       2403. kBytes
   fftplans  :     924480. kBytes
   grid      :    2089440. kBytes
   one-center:         67. kBytes
   wavefun   :    1287318. kBytes
 
  
  
 General timing and accounting informations for this job:
 ========================================================
  
                  Total CPU time used (sec):   226704.625
                            User time (sec):   225248.218
                          System time (sec):     1456.408
                         Elapsed time (sec):   226579.139
  
                   Maximum memory used (kb):     5902676.
                   Average memory used (kb):           0.
  
                          Minor page faults:    319868790
                          Major page faults:            1
                 Voluntary context switches:        13751
