 vasp.5.4.1 24Jun15 (build Jan 13 2020 12:58:22) complex                        
  
 POSCAR found type information on POSCAR  H  C  N  O 
 02/POSCAR found :  4 types and      22 ions
 scaLAPACK will be used
 LDA part: xc-table for Pade appr. of Perdew
 POSCAR found type information on POSCAR  H  C  N  O 
 00/POSCAR found :  4 types and      22 ions
 POSCAR found type information on POSCAR  H  C  N  O 
 16/POSCAR found :  4 types and      22 ions
 Jacobian:    50.2178792621697     
 POSCAR, INCAR and KPOINTS ok, starting setup
 WARNING: small aliasing (wrap around) errors must be expected
 FFT: planning ...
 WAVECAR not read
 entering main loop
       N       E                     dE             d eps       ncg     rms          rms(c)
DAV:   1     0.611757018278E+03    0.61176E+03   -0.79450E+03   392   0.485E+02
DAV:   2     0.276217951346E+03   -0.33554E+03   -0.32440E+03   571   0.924E+01
DAV:   3    -0.426536210948E+02   -0.31887E+03   -0.30851E+03   488   0.110E+02
DAV:   4    -0.135832104914E+03   -0.93178E+02   -0.92142E+02   404   0.813E+01
DAV:   5    -0.141928438792E+03   -0.60963E+01   -0.60788E+01   415   0.234E+01    0.196E+01
DAV:   6    -0.131819722583E+03    0.10109E+02   -0.23946E+01   408   0.201E+01    0.100E+01
DAV:   7    -0.130050748449E+03    0.17690E+01   -0.45299E+00   423   0.833E+00    0.516E+00
DAV:   8    -0.129567489921E+03    0.48326E+00   -0.86182E-01   432   0.403E+00    0.155E+00
DAV:   9    -0.129500292433E+03    0.67197E-01   -0.10282E-01   464   0.154E+00    0.568E-01
DAV:  10    -0.129490159896E+03    0.10133E-01   -0.25737E-02   432   0.824E-01    0.258E-01
DAV:  11    -0.129485422663E+03    0.47372E-02   -0.78963E-03   448   0.432E-01    0.160E-01
DAV:  12    -0.129486810930E+03   -0.13883E-02   -0.60938E-03   381   0.353E-01    0.973E-02
DAV:  13    -0.129493424147E+03   -0.66132E-02   -0.45487E-03   424   0.305E-01    0.564E-02
DAV:  14    -0.129499791878E+03   -0.63677E-02   -0.16034E-03   392   0.180E-01    0.369E-02
DAV:  15    -0.129507486741E+03   -0.76949E-02   -0.77757E-04   398   0.944E-02    0.222E-02
DAV:  16    -0.129513367163E+03   -0.58804E-02   -0.47837E-04   332   0.704E-02    0.131E-02
DAV:  17    -0.129516107701E+03   -0.27405E-02   -0.14645E-04   334   0.406E-02    0.774E-03
DAV:  18    -0.129517550181E+03   -0.14425E-02   -0.96130E-05   303   0.274E-02    0.535E-03
DAV:  19    -0.129518384098E+03   -0.83392E-03   -0.42458E-05   302   0.202E-02    0.315E-03
DAV:  20    -0.129518818446E+03   -0.43435E-03   -0.19891E-05   318   0.142E-02    0.237E-03
DAV:  21    -0.129519000474E+03   -0.18203E-03   -0.75333E-06   328   0.817E-03    0.120E-03
DAV:  22    -0.129519139664E+03   -0.13919E-03   -0.38921E-06   271   0.651E-03    0.111E-03
DAV:  23    -0.129519174493E+03   -0.34829E-04   -0.99674E-07   352   0.344E-03
   1 F= -.12951917E+03 E0= -.12951917E+03  d E =-.129519E+03
damped:  g(F)=  0.000E+00 g(S)=  0.000E+00 dE (1.order)= 0.000E+00
 bond charge predicted
       N       E                     dE             d eps       ncg     rms          rms(c)
DAV:   1    -0.129519884438E+03   -0.74477E-03   -0.93025E-02   332   0.165E+00    0.955E-02
DAV:   2    -0.129520188278E+03   -0.30384E-03   -0.43998E-03   456   0.308E-01    0.621E-02
DAV:   3    -0.129520134122E+03    0.54156E-04   -0.11349E-04   358   0.631E-02    0.371E-02
DAV:   4    -0.129520097192E+03    0.36930E-04   -0.11042E-04   276   0.567E-02    0.835E-03
DAV:   5    -0.129520096405E+03    0.78687E-06   -0.26066E-05   368   0.264E-02    0.440E-03
DAV:   6    -0.129520099464E+03   -0.30591E-05   -0.36799E-06   240   0.101E-02
   2 F= -.12952010E+03 E0= -.12952010E+03  d E =-.924971E-03
damped:  g(F)=  0.000E+00 g(S)=  0.000E+00 dE (1.order)= 0.000E+00
 bond charge predicted
       N       E                     dE             d eps       ncg     rms          rms(c)
DAV:   1    -0.129520203794E+03   -0.10739E-03   -0.10384E-03   394   0.173E-01    0.960E-03
DAV:   2    -0.129520211251E+03   -0.74566E-05   -0.33096E-05   304   0.283E-02    0.572E-03
DAV:   3    -0.129520215743E+03   -0.44921E-05   -0.31290E-06   204   0.933E-03    0.302E-03
DAV:   4    -0.129520221622E+03   -0.58787E-05   -0.10339E-06   323   0.494E-03    0.933E-04
DAV:   5    -0.129520225255E+03   -0.36339E-05   -0.31354E-07   254   0.260E-03    0.423E-04
DAV:   6    -0.129520226730E+03   -0.14744E-05   -0.77469E-08   256   0.122E-03
   3 F= -.12952023E+03 E0= -.12952023E+03  d E =-.127266E-03
damped:  g(F)=  0.000E+00 g(S)=  0.000E+00 dE (1.order)= 0.000E+00
 bond charge predicted
       N       E                     dE             d eps       ncg     rms          rms(c)
DAV:   1    -0.129520343636E+03   -0.11838E-03   -0.30568E-03   339   0.300E-01    0.152E-02
DAV:   2    -0.129520353152E+03   -0.95161E-05   -0.11515E-04   347   0.504E-02    0.994E-03
DAV:   3    -0.129520353305E+03   -0.15290E-06   -0.56535E-06   256   0.126E-02    0.596E-03
DAV:   4    -0.129520354418E+03   -0.11132E-05   -0.38908E-06   272   0.995E-03    0.147E-03
DAV:   5    -0.129520355032E+03   -0.61415E-06   -0.89466E-07   272   0.505E-03    0.772E-04
DAV:   6    -0.129520355419E+03   -0.38677E-06   -0.18757E-07   230   0.213E-03
   4 F= -.12952036E+03 E0= -.12952036E+03  d E =-.128689E-03
damped:  g(F)=  0.000E+00 g(S)=  0.000E+00 dE (1.order)= 0.000E+00
 bond charge predicted
       N       E                     dE             d eps       ncg     rms          rms(c)
DAV:   1    -0.129520432705E+03   -0.77673E-04   -0.37925E-03   358   0.336E-01    0.153E-02
DAV:   2    -0.129520440666E+03   -0.79611E-05   -0.12412E-04   314   0.526E-02    0.104E-02
DAV:   3    -0.129520439423E+03    0.12437E-05   -0.60403E-06   272   0.130E-02    0.631E-03
DAV:   4    -0.129520438371E+03    0.10519E-05   -0.44400E-06   264   0.106E-02    0.155E-03
DAV:   5    -0.129520438402E+03   -0.31127E-07   -0.97471E-07   272   0.529E-03    0.859E-04
DAV:   6    -0.129520438554E+03   -0.15262E-06   -0.20507E-07   220   0.220E-03
   5 F= -.12952044E+03 E0= -.12952044E+03  d E =-.831356E-04
damped:  g(F)=  0.000E+00 g(S)=  0.000E+00 dE (1.order)= 0.000E+00
 bond charge predicted
       N       E                     dE             d eps       ncg     rms          rms(c)
DAV:   1    -0.129520515725E+03   -0.77324E-04   -0.28271E-03   367   0.289E-01    0.112E-02
DAV:   2    -0.129520519000E+03   -0.32749E-05   -0.58589E-05   328   0.372E-02    0.753E-03
DAV:   3    -0.129520518723E+03    0.27735E-06   -0.49387E-06   216   0.117E-02    0.426E-03
DAV:   4    -0.129520518739E+03   -0.16441E-07   -0.19981E-06   266   0.726E-03    0.993E-04
DAV:   5    -0.129520519020E+03   -0.28078E-06   -0.43192E-07   208   0.347E-03    0.591E-04
DAV:   6    -0.129520519325E+03   -0.30468E-06   -0.10204E-07   224   0.153E-03
   6 F= -.12952052E+03 E0= -.12952052E+03  d E =-.807705E-04
damped:  g(F)=  0.000E+00 g(S)=  0.000E+00 dE (1.order)= 0.000E+00
 bond charge predicted
       N       E                     dE             d eps       ncg     rms          rms(c)
DAV:   1    -0.129520639680E+03   -0.12066E-03   -0.25717E-03   349   0.273E-01    0.110E-02
DAV:   2    -0.129520641842E+03   -0.21620E-05   -0.40761E-05   299   0.311E-02    0.691E-03
DAV:   3    -0.129520642280E+03   -0.43815E-06   -0.39126E-06   271   0.108E-02    0.363E-03
DAV:   4    -0.129520643070E+03   -0.79004E-06   -0.14412E-06   209   0.603E-03    0.103E-03
DAV:   5    -0.129520643438E+03   -0.36840E-06   -0.30476E-07   263   0.305E-03    0.490E-04
DAV:   6    -0.129520643729E+03   -0.29049E-06   -0.64508E-08   201   0.137E-03
   7 F= -.12952064E+03 E0= -.12952064E+03  d E =-.124404E-03
damped:  g(F)=  0.000E+00 g(S)=  0.000E+00 dE (1.order)= 0.000E+00
 bond charge predicted
       N       E                     dE             d eps       ncg     rms          rms(c)
DAV:   1    -0.129520780175E+03   -0.13674E-03   -0.36791E-03   390   0.327E-01    0.154E-02
DAV:   2    -0.129520785150E+03   -0.49749E-05   -0.89886E-05   313   0.447E-02    0.991E-03
DAV:   3    -0.129520784841E+03    0.30889E-06   -0.56369E-06   264   0.128E-02    0.572E-03
DAV:   4    -0.129520784985E+03   -0.14416E-06   -0.30575E-06   232   0.870E-03    0.163E-03
DAV:   5    -0.129520785050E+03   -0.65122E-07   -0.71780E-07   272   0.488E-03    0.714E-04
DAV:   6    -0.129520785149E+03   -0.98650E-07   -0.13014E-07   224   0.198E-03
   8 F= -.12952079E+03 E0= -.12952079E+03  d E =-.141420E-03
damped:  g(F)=  0.000E+00 g(S)=  0.000E+00 dE (1.order)= 0.000E+00
 bond charge predicted
       N       E                     dE             d eps       ncg     rms          rms(c)
DAV:   1    -0.129520892092E+03   -0.10704E-03   -0.60189E-03   375   0.415E-01    0.207E-02
DAV:   2    -0.129520900659E+03   -0.85671E-05   -0.16021E-04   308   0.600E-02    0.134E-02
DAV:   3    -0.129520899482E+03    0.11771E-05   -0.10302E-05   272   0.172E-02    0.776E-03
DAV:   4    -0.129520899085E+03    0.39653E-06   -0.54913E-06   232   0.118E-02    0.220E-03
DAV:   5    -0.129520899109E+03   -0.23736E-07   -0.13565E-06   272   0.663E-03    0.941E-04
DAV:   6    -0.129520899294E+03   -0.18497E-06   -0.29362E-07   200   0.273E-03
   9 F= -.12952090E+03 E0= -.12952090E+03  d E =-.114145E-03
damped:  g(F)=  0.000E+00 g(S)=  0.000E+00 dE (1.order)= 0.000E+00
 bond charge predicted
       N       E                     dE             d eps       ncg     rms          rms(c)
DAV:   1    -0.129520985888E+03   -0.86779E-04   -0.78849E-03   364   0.466E-01    0.225E-02
DAV:   2    -0.129520992822E+03   -0.69343E-05   -0.14285E-04   268   0.598E-02    0.140E-02
DAV:   3    -0.129520993385E+03   -0.56261E-06   -0.14431E-05   200   0.191E-02    0.740E-03
DAV:   4    -0.129520994223E+03   -0.83819E-06   -0.56564E-06   246   0.119E-02    0.200E-03
DAV:   5    -0.129520994520E+03   -0.29750E-06   -0.15674E-06   200   0.655E-03    0.870E-04
DAV:   6    -0.129520994845E+03   -0.32412E-06   -0.45940E-07   201   0.293E-03
  10 F= -.12952099E+03 E0= -.12952099E+03  d E =-.955505E-04
damped:  g(F)=  0.000E+00 g(S)=  0.000E+00 dE (1.order)= 0.000E+00
 bond charge predicted
       N       E                     dE             d eps       ncg     rms          rms(c)
DAV:   1    -0.129521146426E+03   -0.15191E-03   -0.12700E-02   331   0.579E-01    0.280E-02
DAV:   2    -0.129521157547E+03   -0.11120E-04   -0.19667E-04   321   0.686E-02    0.172E-02
DAV:   3    -0.129521159111E+03   -0.15643E-05   -0.15819E-05   260   0.207E-02    0.823E-03
DAV:   4    -0.129521161166E+03   -0.20548E-05   -0.50152E-06   234   0.113E-02    0.178E-03
DAV:   5    -0.129521161502E+03   -0.33567E-06   -0.10471E-06   272   0.535E-03    0.870E-04
DAV:   6    -0.129521161823E+03   -0.32143E-06   -0.22016E-07   200   0.235E-03
  11 F= -.12952116E+03 E0= -.12952116E+03  d E =-.166978E-03
damped:  g(F)=  0.000E+00 g(S)=  0.000E+00 dE (1.order)= 0.000E+00
 bond charge predicted
       N       E                     dE             d eps       ncg     rms          rms(c)
DAV:   1    -0.129521338610E+03   -0.17711E-03   -0.25111E-02   344   0.817E-01    0.399E-02
DAV:   2    -0.129521369843E+03   -0.31233E-04   -0.50142E-04   385   0.105E-01    0.255E-02
DAV:   3    -0.129521366720E+03    0.31231E-05   -0.15751E-05   269   0.234E-02    0.135E-02
DAV:   4    -0.129521368523E+03   -0.18030E-05   -0.13403E-05   277   0.185E-02    0.262E-03
DAV:   5    -0.129521368656E+03   -0.13275E-06   -0.23718E-06   272   0.832E-03    0.160E-03
DAV:   6    -0.129521368836E+03   -0.17991E-06   -0.35739E-07   246   0.320E-03
  12 F= -.12952137E+03 E0= -.12952137E+03  d E =-.207013E-03
damped:  g(F)=  0.000E+00 g(S)=  0.000E+00 dE (1.order)= 0.000E+00
 bond charge predicted
       N       E                     dE             d eps       ncg     rms          rms(c)
DAV:   1    -0.129521529882E+03   -0.16123E-03   -0.39115E-02   331   0.101E+00    0.490E-02
DAV:   2    -0.129521566670E+03   -0.36789E-04   -0.64694E-04   405   0.121E-01    0.312E-02
DAV:   3    -0.129521564408E+03    0.22622E-05   -0.21513E-05   228   0.279E-02    0.156E-02
DAV:   4    -0.129521568886E+03   -0.44773E-05   -0.20657E-05   288   0.215E-02    0.370E-03
DAV:   5    -0.129521569188E+03   -0.30220E-06   -0.39070E-06   238   0.109E-02    0.172E-03
DAV:   6    -0.129521569673E+03   -0.48483E-06   -0.56288E-07   220   0.387E-03
  13 F= -.12952157E+03 E0= -.12952157E+03  d E =-.200837E-03
damped:  g(F)=  0.000E+00 g(S)=  0.000E+00 dE (1.order)= 0.000E+00
 bond charge predicted
       N       E                     dE             d eps       ncg     rms          rms(c)
DAV:   1    -0.129521816825E+03   -0.24764E-03   -0.54172E-02   331   0.118E+00    0.574E-02
DAV:   2    -0.129521862717E+03   -0.45892E-04   -0.82523E-04   418   0.137E-01    0.384E-02
DAV:   3    -0.129521861543E+03    0.11737E-05   -0.37657E-05   268   0.358E-02    0.192E-02
DAV:   4    -0.129521869374E+03   -0.78304E-05   -0.24068E-05   248   0.239E-02    0.402E-03
DAV:   5    -0.129521869710E+03   -0.33586E-06   -0.47121E-06   272   0.120E-02    0.193E-03
DAV:   6    -0.129521870151E+03   -0.44092E-06   -0.70170E-07   262   0.444E-03
  14 F= -.12952187E+03 E0= -.12952187E+03  d E =-.300478E-03
damped:  g(F)=  0.000E+00 g(S)=  0.000E+00 dE (1.order)= 0.000E+00
 bond charge predicted
       N       E                     dE             d eps       ncg     rms          rms(c)
DAV:   1    -0.129522058646E+03   -0.18894E-03   -0.71598E-02   329   0.136E+00    0.661E-02
DAV:   2    -0.129522119638E+03   -0.60992E-04   -0.11262E-03   428   0.160E-01    0.448E-02
DAV:   3    -0.129522115828E+03    0.38094E-05   -0.51327E-05   269   0.419E-02    0.231E-02
DAV:   4    -0.129522124991E+03   -0.91633E-05   -0.33767E-05   241   0.286E-02    0.500E-03
DAV:   5    -0.129522125052E+03   -0.60893E-07   -0.69683E-06   272   0.146E-02    0.229E-03
DAV:   6    -0.129522125515E+03   -0.46223E-06   -0.10814E-06   248   0.542E-03
  15 F= -.12952213E+03 E0= -.12952213E+03  d E =-.255364E-03
damped:  g(F)=  0.000E+00 g(S)=  0.000E+00 dE (1.order)= 0.000E+00
 bond charge predicted
       N       E                     dE             d eps       ncg     rms          rms(c)
DAV:   1    -0.129522153117E+03   -0.28065E-04   -0.29414E-04   292   0.925E-02    0.462E-03
DAV:   2    -0.129522154891E+03   -0.17743E-05   -0.15139E-05   229   0.205E-02    0.307E-03
DAV:   3    -0.129522155416E+03   -0.52426E-06   -0.15833E-06   244   0.667E-03    0.195E-03
DAV:   4    -0.129522156244E+03   -0.82876E-06   -0.54147E-07   234   0.368E-03    0.633E-04
DAV:   5    -0.129522156604E+03   -0.35941E-06   -0.88660E-08   262   0.179E-03    0.317E-04
DAV:   6    -0.129522156977E+03   -0.37345E-06   -0.78558E-09   201   0.885E-04
  16 F= -.12952216E+03 E0= -.12952216E+03  d E =-.314626E-04
damped:  g(F)=  0.000E+00 g(S)=  0.000E+00 dE (1.order)= 0.000E+00
 bond charge predicted
       N       E                     dE             d eps       ncg     rms          rms(c)
DAV:   1    -0.129522187917E+03   -0.31313E-04   -0.87794E-04   363   0.159E-01    0.883E-03
DAV:   2    -0.129522190367E+03   -0.24506E-05   -0.33842E-05   210   0.283E-02    0.536E-03
DAV:   3    -0.129522190350E+03    0.17448E-07   -0.37114E-06   272   0.984E-03    0.295E-03
DAV:   4    -0.129522190265E+03    0.84766E-07   -0.12806E-06   264   0.538E-03    0.102E-03
DAV:   5    -0.129522190262E+03    0.29986E-08   -0.22326E-07   272   0.281E-03    0.485E-04
DAV:   6    -0.129522190337E+03   -0.75424E-07   -0.33772E-08   236   0.136E-03
  17 F= -.12952219E+03 E0= -.12952219E+03  d E =-.333601E-04
damped:  g(F)=  0.000E+00 g(S)=  0.000E+00 dE (1.order)= 0.000E+00
 bond charge predicted
       N       E                     dE             d eps       ncg     rms          rms(c)
DAV:   1    -0.129522208346E+03   -0.18084E-04   -0.11077E-03   384   0.178E-01    0.904E-03
DAV:   2    -0.129522210701E+03   -0.23549E-05   -0.38663E-05   236   0.301E-02    0.564E-03
DAV:   3    -0.129522210430E+03    0.27096E-06   -0.41857E-06   272   0.104E-02    0.315E-03
DAV:   4    -0.129522210085E+03    0.34498E-06   -0.12383E-06   216   0.573E-03    0.936E-04
DAV:   5    -0.129522210063E+03    0.21822E-07   -0.35097E-07   248   0.303E-03    0.444E-04
DAV:   6    -0.129522210178E+03   -0.11487E-06   -0.87583E-08   200   0.149E-03
  18 F= -.12952221E+03 E0= -.12952221E+03  d E =-.198407E-04
damped:  g(F)=  0.000E+00 g(S)=  0.000E+00 dE (1.order)= 0.000E+00
 bond charge predicted
       N       E                     dE             d eps       ncg     rms          rms(c)
DAV:   1    -0.129522229940E+03   -0.19877E-04   -0.83158E-04   334   0.152E-01    0.600E-03
DAV:   2    -0.129522231694E+03   -0.17541E-05   -0.24820E-05   201   0.246E-02    0.401E-03
DAV:   3    -0.129522231772E+03   -0.77440E-07   -0.26022E-06   164   0.840E-03    0.249E-03
DAV:   4    -0.129522231830E+03   -0.58883E-07   -0.76616E-07   164   0.470E-03    0.627E-04
DAV:   5    -0.129522231950E+03   -0.11991E-06   -0.19842E-07   165   0.239E-03    0.388E-04
DAV:   6    -0.129522232112E+03   -0.16133E-06   -0.46964E-08   208   0.119E-03
  19 F= -.12952223E+03 E0= -.12952223E+03  d E =-.219336E-04
damped:  g(F)=  0.000E+00 g(S)=  0.000E+00 dE (1.order)= 0.000E+00
 bond charge predicted
       N       E                     dE             d eps       ncg     rms          rms(c)
DAV:   1    -0.129522272334E+03   -0.40384E-04   -0.75922E-04   317   0.141E-01    0.560E-03
DAV:   2    -0.129522273683E+03   -0.13484E-05   -0.17046E-05   208   0.204E-02    0.344E-03
DAV:   3    -0.129522273987E+03   -0.30437E-06   -0.17821E-06   219   0.722E-03    0.190E-03
DAV:   4    -0.129522274338E+03   -0.35050E-06   -0.42951E-07   243   0.362E-03    0.466E-04
DAV:   5    -0.129522274515E+03   -0.17785E-06   -0.94781E-08   221   0.185E-03    0.232E-04
DAV:   6    -0.129522274621E+03   -0.10566E-06    0.90053E-10   225   0.892E-04
  20 F= -.12952227E+03 E0= -.12952227E+03  d E =-.425094E-04
damped:  g(F)=  0.000E+00 g(S)=  0.000E+00 dE (1.order)= 0.000E+00
 bond charge predicted
       N       E                     dE             d eps       ncg     rms          rms(c)
DAV:   1    -0.129522329552E+03   -0.55037E-04   -0.11148E-03   339   0.173E-01    0.774E-03
DAV:   2    -0.129522331400E+03   -0.18477E-05   -0.27642E-05   228   0.249E-02    0.507E-03
DAV:   3    -0.129522331552E+03   -0.15190E-06   -0.29123E-06   272   0.869E-03    0.295E-03
DAV:   4    -0.129522331690E+03   -0.13842E-06   -0.81639E-07   229   0.486E-03    0.846E-04
DAV:   5    -0.129522331712E+03   -0.21414E-07   -0.17927E-07   272   0.252E-03    0.361E-04
DAV:   6    -0.129522331754E+03   -0.42106E-07   -0.93121E-09   190   0.124E-03
  21 F= -.12952233E+03 E0= -.12952233E+03  d E =-.571328E-04
damped:  g(F)=  0.000E+00 g(S)=  0.000E+00 dE (1.order)= 0.000E+00
 bond charge predicted
       N       E                     dE             d eps       ncg     rms          rms(c)
DAV:   1    -0.129522387646E+03   -0.55934E-04   -0.19408E-03   330   0.230E-01    0.109E-02
DAV:   2    -0.129522390726E+03   -0.30801E-05   -0.53108E-05   234   0.345E-02    0.731E-03
DAV:   3    -0.129522390479E+03    0.24681E-06   -0.40595E-06   272   0.100E-02    0.442E-03
DAV:   4    -0.129522390314E+03    0.16574E-06   -0.19764E-06   200   0.737E-03    0.117E-03
DAV:   5    -0.129522390298E+03    0.15818E-07   -0.48811E-07   272   0.379E-03    0.549E-04
DAV:   6    -0.129522390360E+03   -0.62613E-07   -0.10974E-07   200   0.174E-03
  22 F= -.12952239E+03 E0= -.12952239E+03  d E =-.586065E-04
damped:  g(F)=  0.000E+00 g(S)=  0.000E+00 dE (1.order)= 0.000E+00
 bond charge predicted
       N       E                     dE             d eps       ncg     rms          rms(c)
DAV:   1    -0.129522444755E+03   -0.54457E-04   -0.27393E-03   340   0.269E-01    0.124E-02
DAV:   2    -0.129522448002E+03   -0.32477E-05   -0.57698E-05   243   0.364E-02    0.823E-03
DAV:   3    -0.129522448000E+03    0.25266E-08   -0.47394E-06   202   0.109E-02    0.465E-03
DAV:   4    -0.129522448213E+03   -0.21313E-06   -0.20468E-06   226   0.741E-03    0.119E-03
DAV:   5    -0.129522448293E+03   -0.79572E-07   -0.53471E-07   165   0.392E-03    0.545E-04
DAV:   6    -0.129522448418E+03   -0.12524E-06   -0.13083E-07   199   0.173E-03
  23 F= -.12952245E+03 E0= -.12952245E+03  d E =-.580575E-04
damped:  g(F)=  0.000E+00 g(S)=  0.000E+00 dE (1.order)= 0.000E+00
 bond charge predicted
       N       E                     dE             d eps       ncg     rms          rms(c)
DAV:   1    -0.129522528618E+03   -0.80325E-04   -0.42604E-03   341   0.331E-01    0.150E-02
DAV:   2    -0.129522532217E+03   -0.35989E-05   -0.64409E-05   233   0.397E-02    0.944E-03
DAV:   3    -0.129522533294E+03   -0.10778E-05   -0.87174E-06   269   0.147E-02    0.440E-03
DAV:   4    -0.129522533999E+03   -0.70477E-06   -0.16127E-06   260   0.696E-03    0.103E-03
DAV:   5    -0.129522534178E+03   -0.17922E-06   -0.33610E-07   212   0.328E-03    0.448E-04
DAV:   6    -0.129522534304E+03   -0.12566E-06   -0.53902E-08   227   0.151E-03
  24 F= -.12952253E+03 E0= -.12952253E+03  d E =-.858862E-04
damped:  g(F)=  0.000E+00 g(S)=  0.000E+00 dE (1.order)= 0.000E+00
 bond charge predicted
       N       E                     dE             d eps       ncg     rms          rms(c)
DAV:   1    -0.129522638036E+03   -0.10386E-03   -0.82977E-03   339   0.467E-01    0.213E-02
DAV:   2    -0.129522647400E+03   -0.93644E-05   -0.15557E-04   322   0.595E-02    0.138E-02
DAV:   3    -0.129522647326E+03    0.73874E-07   -0.97931E-06   245   0.164E-02    0.709E-03
DAV:   4    -0.129522647992E+03   -0.66509E-06   -0.44569E-06   268   0.105E-02    0.163E-03
DAV:   5    -0.129522648091E+03   -0.99822E-07   -0.93405E-07   264   0.522E-03    0.777E-04
DAV:   6    -0.129522648171E+03   -0.79498E-07   -0.14849E-07   220   0.207E-03
  25 F= -.12952265E+03 E0= -.12952265E+03  d E =-.113867E-03
damped:  g(F)=  0.000E+00 g(S)=  0.000E+00 dE (1.order)= 0.000E+00
 bond charge predicted
       N       E                     dE             d eps       ncg     rms          rms(c)
DAV:   1    -0.129522752861E+03   -0.10477E-03   -0.13937E-02   334   0.602E-01    0.275E-02
DAV:   2    -0.129522767302E+03   -0.14441E-04   -0.24637E-04   333   0.742E-02    0.180E-02
DAV:   3    -0.129522766738E+03    0.56445E-06   -0.10940E-05   237   0.190E-02    0.939E-03
DAV:   4    -0.129522768091E+03   -0.13531E-05   -0.69181E-06   253   0.134E-02    0.193E-03
DAV:   5    -0.129522768282E+03   -0.19071E-06   -0.14101E-06   213   0.640E-03    0.103E-03
DAV:   6    -0.129522768480E+03   -0.19793E-06   -0.23014E-07   224   0.238E-03
  26 F= -.12952277E+03 E0= -.12952277E+03  d E =-.120309E-03
damped:  g(F)=  0.000E+00 g(S)=  0.000E+00 dE (1.order)= 0.000E+00
 bond charge predicted
       N       E                     dE             d eps       ncg     rms          rms(c)
DAV:   1    -0.129522915537E+03   -0.14726E-03   -0.21270E-02   330   0.735E-01    0.338E-02
DAV:   2    -0.129522935235E+03   -0.19698E-04   -0.33716E-04   339   0.860E-02    0.228E-02
DAV:   3    -0.129522934968E+03    0.26713E-06   -0.12263E-05   236   0.212E-02    0.119E-02
DAV:   4    -0.129522938439E+03   -0.34712E-05   -0.10287E-05   236   0.160E-02    0.270E-03
DAV:   5    -0.129522938602E+03   -0.16314E-06   -0.21270E-06   264   0.805E-03    0.136E-03
DAV:   6    -0.129522938830E+03   -0.22803E-06   -0.36505E-07   200   0.310E-03
  27 F= -.12952294E+03 E0= -.12952294E+03  d E =-.170351E-03
damped:  g(F)=  0.000E+00 g(S)=  0.000E+00 dE (1.order)= 0.000E+00
 bond charge predicted
       N       E                     dE             d eps       ncg     rms          rms(c)
DAV:   1    -0.129523094828E+03   -0.15623E-03   -0.33969E-02   334   0.932E-01    0.431E-02
DAV:   2    -0.129523128991E+03   -0.34163E-04   -0.57926E-04   379   0.112E-01    0.298E-02
DAV:   3    -0.129523126749E+03    0.22421E-05   -0.20046E-05   253   0.272E-02    0.160E-02
DAV:   4    -0.129523131570E+03   -0.48210E-05   -0.19154E-05   265   0.215E-02    0.388E-03
DAV:   5    -0.129523131510E+03    0.60229E-07   -0.38658E-06   272   0.111E-02    0.171E-03
DAV:   6    -0.129523131733E+03   -0.22333E-06   -0.59492E-07   238   0.403E-03
  28 F= -.12952313E+03 E0= -.12952313E+03  d E =-.192903E-03
damped:  g(F)=  0.000E+00 g(S)=  0.000E+00 dE (1.order)= 0.000E+00
 bond charge predicted
       N       E                     dE             d eps       ncg     rms          rms(c)
DAV:   1    -0.129523326646E+03   -0.19514E-03   -0.49452E-02   332   0.113E+00    0.510E-02
DAV:   2    -0.129523379705E+03   -0.53059E-04   -0.85395E-04   376   0.136E-01    0.341E-02
DAV:   3    -0.129523378231E+03    0.14746E-05   -0.26350E-05   282   0.299E-02    0.177E-02
DAV:   4    -0.129523385111E+03   -0.68806E-05   -0.18914E-05   236   0.220E-02    0.314E-03
DAV:   5    -0.129523385477E+03   -0.36538E-06   -0.36056E-06   272   0.997E-03    0.186E-03
DAV:   6    -0.129523385806E+03   -0.32984E-06   -0.45522E-07   216   0.360E-03
  29 F= -.12952339E+03 E0= -.12952339E+03  d E =-.254073E-03
damped:  g(F)=  0.000E+00 g(S)=  0.000E+00 dE (1.order)= 0.000E+00
 bond charge predicted
       N       E                     dE             d eps       ncg     rms          rms(c)
DAV:   1    -0.129523592851E+03   -0.20737E-03   -0.69364E-02   331   0.134E+00    0.589E-02
DAV:   2    -0.129523676150E+03   -0.83300E-04   -0.12729E-03   388   0.164E-01    0.392E-02
DAV:   3    -0.129523673370E+03    0.27805E-05   -0.33464E-05   242   0.341E-02    0.204E-02
DAV:   4    -0.129523682662E+03   -0.92923E-05   -0.25063E-05   236   0.258E-02    0.368E-03
DAV:   5    -0.129523683281E+03   -0.61850E-06   -0.49738E-06   262   0.117E-02    0.215E-03
DAV:   6    -0.129523683902E+03   -0.62130E-06   -0.79705E-07   248   0.429E-03
  30 F= -.12952368E+03 E0= -.12952368E+03  d E =-.298095E-03
damped:  g(F)=  0.000E+00 g(S)=  0.000E+00 dE (1.order)= 0.000E+00
 bond charge predicted
       N       E                     dE             d eps       ncg     rms          rms(c)
DAV:   1    -0.129523908783E+03   -0.22550E-03   -0.88832E-02   330   0.152E+00    0.655E-02
DAV:   2    -0.129524034802E+03   -0.12602E-03   -0.18376E-03   361   0.194E-01    0.463E-02
DAV:   3    -0.129524025879E+03    0.89228E-05   -0.45892E-05   272   0.419E-02    0.267E-02
DAV:   4    -0.129524040287E+03   -0.14408E-04   -0.48060E-05   264   0.361E-02    0.645E-03
DAV:   5    -0.129524040394E+03   -0.10711E-06   -0.11519E-05   272   0.189E-02    0.276E-03
DAV:   6    -0.129524040961E+03   -0.56719E-06   -0.16922E-06   256   0.661E-03
  31 F= -.12952404E+03 E0= -.12952404E+03  d E =-.357059E-03
damped:  g(F)=  0.000E+00 g(S)=  0.000E+00 dE (1.order)= 0.000E+00
 bond charge predicted
       N       E                     dE             d eps       ncg     rms          rms(c)
DAV:   1    -0.129524246495E+03   -0.20610E-03   -0.12745E-01   328   0.183E+00    0.749E-02
DAV:   2    -0.129524457328E+03   -0.21083E-03   -0.28550E-03   360   0.240E-01    0.503E-02
DAV:   3    -0.129524445965E+03    0.11363E-04   -0.52360E-05   300   0.423E-02    0.282E-02
DAV:   4    -0.129524460598E+03   -0.14633E-04   -0.47994E-05   291   0.375E-02    0.480E-03
DAV:   5    -0.129524461838E+03   -0.12397E-05   -0.90361E-06   272   0.157E-02    0.305E-03
DAV:   6    -0.129524462745E+03   -0.90667E-06   -0.11145E-06   282   0.539E-03
  32 F= -.12952446E+03 E0= -.12952446E+03  d E =-.421783E-03
damped:  g(F)=  0.000E+00 g(S)=  0.000E+00 dE (1.order)= 0.000E+00
 bond charge predicted
       N       E                     dE             d eps       ncg     rms          rms(c)
DAV:   1    -0.129524630283E+03   -0.16845E-03   -0.16838E-01   330   0.211E+00    0.848E-02
DAV:   2    -0.129524926159E+03   -0.29588E-03   -0.39834E-03   361   0.279E-01    0.610E-02
DAV:   3    -0.129524905087E+03    0.21072E-04   -0.81352E-05   335   0.538E-02    0.371E-02
DAV:   4    -0.129524928219E+03   -0.23132E-04   -0.70717E-05   296   0.471E-02    0.688E-03
DAV:   5    -0.129524930384E+03   -0.21653E-05   -0.15751E-05   272   0.209E-02    0.388E-03
DAV:   6    -0.129524931575E+03   -0.11906E-05   -0.20722E-06   256   0.747E-03
  33 F= -.12952493E+03 E0= -.12952493E+03  d E =-.468830E-03
damped:  g(F)=  0.000E+00 g(S)=  0.000E+00 dE (1.order)= 0.000E+00
 bond charge predicted
       N       E                     dE             d eps       ncg     rms          rms(c)
DAV:   1    -0.129524743317E+03    0.18707E-03   -0.27879E-01   328   0.271E+00    0.110E-01
DAV:   2    -0.129525292526E+03   -0.54921E-03   -0.71614E-03   360   0.374E-01    0.753E-02
DAV:   3    -0.129525251859E+03    0.40667E-04   -0.11915E-04   348   0.625E-02    0.439E-02
DAV:   4    -0.129525267737E+03   -0.15878E-04   -0.12126E-04   275   0.598E-02    0.734E-03
DAV:   5    -0.129525270673E+03   -0.29360E-05   -0.24348E-05   304   0.248E-02    0.506E-03
DAV:   6    -0.129525272354E+03   -0.16814E-05   -0.30243E-06   258   0.859E-03
  34 F= -.12952527E+03 E0= -.12952527E+03  d E =-.340780E-03
damped:  g(F)=  0.000E+00 g(S)=  0.000E+00 dE (1.order)= 0.000E+00
 bond charge predicted
       N       E                     dE             d eps       ncg     rms          rms(c)
DAV:   1    -0.129525515357E+03   -0.24468E-03   -0.16734E-02   390   0.664E-01    0.450E-02
DAV:   2    -0.129525574354E+03   -0.58996E-04   -0.77091E-04   360   0.123E-01    0.259E-02
DAV:   3    -0.129525568220E+03    0.61337E-05   -0.21536E-05   276   0.267E-02    0.146E-02
DAV:   4    -0.129525567589E+03    0.63119E-06   -0.16874E-05   265   0.210E-02    0.338E-03
DAV:   5    -0.129525568849E+03   -0.12604E-05   -0.40553E-06   303   0.100E-02    0.174E-03
DAV:   6    -0.129525569837E+03   -0.98756E-06   -0.61634E-07   218   0.409E-03
  35 F= -.12952557E+03 E0= -.12952557E+03  d E =-.297482E-03
damped:  g(F)=  0.000E+00 g(S)=  0.000E+00 dE (1.order)= 0.000E+00
 bond charge predicted
       N       E                     dE             d eps       ncg     rms          rms(c)
DAV:   1    -0.129525360134E+03    0.20872E-03   -0.14997E-02   356   0.633E-01    0.407E-02
DAV:   2    -0.129525406058E+03   -0.45924E-04   -0.69153E-04   369   0.117E-01    0.246E-02
DAV:   3    -0.129525395883E+03    0.10175E-04   -0.22794E-05   272   0.276E-02    0.142E-02
DAV:   4    -0.129525388760E+03    0.71233E-05   -0.18185E-05   288   0.215E-02    0.349E-03
DAV:   5    -0.129525388504E+03    0.25587E-06   -0.42968E-06   272   0.112E-02    0.178E-03
DAV:   6    -0.129525389400E+03   -0.89620E-06   -0.83480E-07   232   0.469E-03
  36 F= -.12952539E+03 E0= -.12952539E+03  d E =0.180437E-03
damped:  g(F)=  0.000E+00 g(S)=  0.000E+00 dE (1.order)= 0.000E+00
 bond charge predicted
       N       E                     dE             d eps       ncg     rms          rms(c)
DAV:   1    -0.129525483721E+03   -0.95217E-04   -0.83837E-04   366   0.149E-01    0.101E-02
DAV:   2    -0.129525487965E+03   -0.42446E-05   -0.33403E-05   252   0.272E-02    0.559E-03
DAV:   3    -0.129525489578E+03   -0.16131E-05   -0.45272E-06   276   0.970E-03    0.281E-03
DAV:   4    -0.129525491235E+03   -0.16568E-05   -0.63729E-07   234   0.419E-03    0.103E-03
DAV:   5    -0.129525492476E+03   -0.12407E-05   -0.25269E-07   262   0.221E-03    0.386E-04
DAV:   6    -0.129525493271E+03   -0.79488E-06   -0.49310E-08   252   0.104E-03
  37 F= -.12952549E+03 E0= -.12952549E+03  d E =-.103871E-03
damped:  g(F)=  0.000E+00 g(S)=  0.000E+00 dE (1.order)= 0.000E+00
 bond charge predicted
       N       E                     dE             d eps       ncg     rms          rms(c)
DAV:   1    -0.129525594079E+03   -0.10160E-03   -0.26116E-03   348   0.263E-01    0.174E-02
DAV:   2    -0.129525602660E+03   -0.85806E-05   -0.11619E-04   304   0.486E-02    0.976E-03
DAV:   3    -0.129525601721E+03    0.93858E-06   -0.57455E-06   236   0.126E-02    0.556E-03
DAV:   4    -0.129525601048E+03    0.67340E-06   -0.33122E-06   265   0.900E-03    0.138E-03
DAV:   5    -0.129525601039E+03    0.86466E-08   -0.77291E-07   272   0.464E-03    0.736E-04
DAV:   6    -0.129525601137E+03   -0.97404E-07   -0.14840E-07   254   0.199E-03
  38 F= -.12952560E+03 E0= -.12952560E+03  d E =-.107866E-03
damped:  g(F)=  0.000E+00 g(S)=  0.000E+00 dE (1.order)= 0.000E+00
 bond charge predicted
       N       E                     dE             d eps       ncg     rms          rms(c)
DAV:   1    -0.129525621228E+03   -0.20189E-04   -0.36767E-03   376   0.312E-01    0.204E-02
DAV:   2    -0.129525631229E+03   -0.10001E-04   -0.16022E-04   309   0.576E-02    0.116E-02
DAV:   3    -0.129525629208E+03    0.20207E-05   -0.95080E-06   272   0.153E-02    0.671E-03
DAV:   4    -0.129525627349E+03    0.18589E-05   -0.54296E-06   232   0.116E-02    0.156E-03
DAV:   5    -0.129525627199E+03    0.14996E-06   -0.13385E-06   272   0.581E-03    0.888E-04
DAV:   6    -0.129525627353E+03   -0.15441E-06   -0.32164E-07   200   0.262E-03
  39 F= -.12952563E+03 E0= -.12952563E+03  d E =-.262169E-04
damped:  g(F)=  0.000E+00 g(S)=  0.000E+00 dE (1.order)= 0.000E+00
 bond charge predicted
       N       E                     dE             d eps       ncg     rms          rms(c)
DAV:   1    -0.129525629574E+03   -0.23749E-05   -0.22717E-06   240   0.788E-03    0.493E-04
DAV:   2    -0.129525629924E+03   -0.34974E-06   -0.17995E-07   266   0.230E-03    0.342E-04
DAV:   3    -0.129525630324E+03   -0.40021E-06   -0.26832E-08   207   0.858E-04    0.230E-04
DAV:   4    -0.129525631057E+03   -0.73313E-06   -0.12832E-08   233   0.595E-04    0.810E-05
DAV:   5    -0.129525631462E+03   -0.40467E-06    0.50476E-10   270   0.401E-04    0.720E-05
DAV:   6    -0.129525632259E+03   -0.79719E-06   -0.11369E-08   240   0.432E-04
  40 F= -.12952563E+03 E0= -.12952563E+03  d E =-.490548E-05
damped:  g(F)=  0.000E+00 g(S)=  0.000E+00 dE (1.order)= 0.000E+00
 bond charge predicted
       N       E                     dE             d eps       ncg     rms          rms(c)
DAV:   1    -0.129525635914E+03   -0.44520E-05   -0.83935E-06   261   0.153E-02    0.746E-04
DAV:   2    -0.129525636089E+03   -0.17536E-06   -0.57992E-07   240   0.419E-03    0.503E-04
DAV:   3    -0.129525636190E+03   -0.10107E-06   -0.34590E-08   232   0.129E-03    0.385E-04
DAV:   4    -0.129525636358E+03   -0.16742E-06    0.27239E-08   221   0.763E-04    0.126E-04
DAV:   5    -0.129525636448E+03   -0.90713E-07    0.48163E-08   254   0.388E-04    0.731E-05
DAV:   6    -0.129525636504E+03   -0.55929E-07    0.57588E-08   193   0.239E-04
  41 F= -.12952564E+03 E0= -.12952564E+03  d E =-.424533E-05
damped:  g(F)=  0.000E+00 g(S)=  0.000E+00 dE (1.order)= 0.000E+00
 bond charge predicted
       N       E                     dE             d eps       ncg     rms          rms(c)
DAV:   1    -0.129525641002E+03   -0.45537E-05   -0.17442E-05   228   0.221E-02    0.107E-03
DAV:   2    -0.129525641117E+03   -0.11532E-06   -0.12235E-06   211   0.604E-03    0.725E-04
DAV:   3    -0.129525641137E+03   -0.19718E-07   -0.96199E-08   164   0.187E-03    0.556E-04
DAV:   4    -0.129525641147E+03   -0.95206E-08    0.21362E-08   239   0.110E-03    0.187E-04
DAV:   5    -0.129525641155E+03   -0.88476E-08    0.54162E-08   165   0.558E-04    0.108E-04
DAV:   6    -0.129525641165E+03   -0.94115E-08    0.64749E-08   164   0.343E-04
  42 F= -.12952564E+03 E0= -.12952564E+03  d E =-.466055E-05
damped:  g(F)=  0.000E+00 g(S)=  0.000E+00 dE (1.order)= 0.000E+00
 bond charge predicted
       N       E                     dE             d eps       ncg     rms          rms(c)
DAV:   1    -0.129525646411E+03   -0.52559E-05   -0.27664E-05   164   0.278E-02    0.132E-03
DAV:   2    -0.129525646574E+03   -0.16265E-06   -0.19626E-06   164   0.760E-03    0.899E-04
DAV:   3    -0.129525646590E+03   -0.15903E-07   -0.19106E-07   164   0.236E-03    0.697E-04
DAV:   4    -0.129525646584E+03    0.53233E-08   -0.88865E-09   173   0.138E-03    0.236E-04
DAV:   5    -0.129525646586E+03   -0.13770E-08    0.41216E-08   165   0.704E-04    0.136E-04
DAV:   6    -0.129525646591E+03   -0.46730E-08    0.57755E-08   164   0.435E-04
  43 F= -.12952565E+03 E0= -.12952565E+03  d E =-.542573E-05
damped:  g(F)=  0.000E+00 g(S)=  0.000E+00 dE (1.order)= 0.000E+00
 bond charge predicted
       N       E                     dE             d eps       ncg     rms          rms(c)
DAV:   1    -0.129525652309E+03   -0.57236E-05   -0.37251E-05   164   0.323E-02    0.149E-03
DAV:   2    -0.129525652524E+03   -0.21468E-06   -0.26336E-06   164   0.880E-03    0.102E-03
DAV:   3    -0.129525652541E+03   -0.17384E-07   -0.28034E-07   164   0.272E-03    0.798E-04
DAV:   4    -0.129525652528E+03    0.13461E-07   -0.36606E-08   164   0.158E-03    0.275E-04
DAV:   5    -0.129525652526E+03    0.15934E-08    0.29167E-08   164   0.813E-04    0.157E-04
DAV:   6    -0.129525652532E+03   -0.50959E-08    0.51410E-08   164   0.504E-04
  44 F= -.12952565E+03 E0= -.12952565E+03  d E =-.594103E-05
damped:  g(F)=  0.000E+00 g(S)=  0.000E+00 dE (1.order)= 0.000E+00
 bond charge predicted
       N       E                     dE             d eps       ncg     rms          rms(c)
DAV:   1    -0.129525658589E+03   -0.60625E-05   -0.44830E-05   164   0.354E-02    0.157E-03
DAV:   2    -0.129525658845E+03   -0.25639E-06   -0.31156E-06   164   0.962E-03    0.107E-03
DAV:   3    -0.129525658869E+03   -0.23750E-07   -0.34343E-07   164   0.296E-03    0.854E-04
DAV:   4    -0.129525658858E+03    0.10561E-07   -0.53616E-08   164   0.170E-03    0.302E-04
DAV:   5    -0.129525658858E+03    0.36016E-09    0.21373E-08   164   0.879E-04    0.169E-04
DAV:   6    -0.129525658866E+03   -0.82091E-08    0.47287E-08   164   0.545E-04
  45 F= -.12952566E+03 E0= -.12952566E+03  d E =-.633481E-05
damped:  g(F)=  0.000E+00 g(S)=  0.000E+00 dE (1.order)= 0.000E+00
 bond charge predicted
       N       E                     dE             d eps       ncg     rms          rms(c)
DAV:   1    -0.129525666037E+03   -0.71784E-05   -0.61820E-05   164   0.415E-02    0.174E-03
DAV:   2    -0.129525666390E+03   -0.35361E-06   -0.41698E-06   164   0.112E-02    0.118E-03
DAV:   3    -0.129525666428E+03   -0.37456E-07   -0.47264E-07   164   0.340E-03    0.957E-04
DAV:   4    -0.129525666424E+03    0.40027E-08   -0.84146E-08   164   0.191E-03    0.351E-04
DAV:   5    -0.129525666427E+03   -0.33688E-08    0.10048E-08   164   0.993E-04    0.188E-04
DAV:   6    -0.129525666437E+03   -0.10098E-07    0.42611E-08   164   0.613E-04
  46 F= -.12952567E+03 E0= -.12952567E+03  d E =-.757074E-05
damped:  g(F)=  0.000E+00 g(S)=  0.000E+00 dE (1.order)= 0.000E+00
 bond charge predicted
       N       E                     dE             d eps       ncg     rms          rms(c)
DAV:   1    -0.129525675292E+03   -0.88646E-05   -0.84166E-05   164   0.482E-02    0.194E-03
DAV:   2    -0.129525675769E+03   -0.47760E-06   -0.54349E-06   164   0.129E-02    0.126E-03
DAV:   3    -0.129525675827E+03   -0.57980E-07   -0.61784E-07   164   0.386E-03    0.103E-03
DAV:   4    -0.129525675838E+03   -0.10740E-07   -0.11287E-07   164   0.210E-03    0.385E-04
DAV:   5    -0.129525675847E+03   -0.89613E-08    0.16018E-09   164   0.107E-03    0.196E-04
DAV:   6    -0.129525675857E+03   -0.99408E-08    0.39665E-08   164   0.659E-04
  47 F= -.12952568E+03 E0= -.12952568E+03  d E =-.941969E-05
damped:  g(F)=  0.000E+00 g(S)=  0.000E+00 dE (1.order)= 0.000E+00
 bond charge predicted
       N       E                     dE             d eps       ncg     rms          rms(c)
DAV:   1    -0.129525687488E+03   -0.11641E-04   -0.12133E-04   196   0.569E-02    0.226E-03
DAV:   2    -0.129525687979E+03   -0.49062E-06   -0.56717E-06   164   0.130E-02    0.137E-03
DAV:   3    -0.129525688043E+03   -0.64092E-07   -0.59090E-07   164   0.402E-03    0.101E-03
DAV:   4    -0.129525688072E+03   -0.28715E-07   -0.97424E-08   164   0.215E-03    0.255E-04
DAV:   5    -0.129525688081E+03   -0.89558E-08    0.13523E-08   164   0.103E-03    0.174E-04
DAV:   6    -0.129525688088E+03   -0.77689E-08    0.45961E-08   164   0.571E-04
  48 F= -.12952569E+03 E0= -.12952569E+03  d E =-.122317E-04
damped:  g(F)=  0.000E+00 g(S)=  0.000E+00 dE (1.order)= 0.000E+00
 bond charge predicted
       N       E                     dE             d eps       ncg     rms          rms(c)
DAV:   1    -0.129525703646E+03   -0.15565E-04   -0.18796E-04   228   0.700E-02    0.277E-03
DAV:   2    -0.129525704105E+03   -0.45915E-06   -0.56286E-06   164   0.126E-02    0.168E-03
DAV:   3    -0.129525704168E+03   -0.62644E-07   -0.51164E-07   164   0.409E-03    0.986E-04
DAV:   4    -0.129525704201E+03   -0.33675E-07   -0.69093E-08   164   0.199E-03    0.197E-04
DAV:   5    -0.129525704209E+03   -0.76761E-08    0.23973E-08   164   0.987E-04    0.140E-04
DAV:   6    -0.129525704212E+03   -0.27794E-08    0.50876E-08   164   0.495E-04
  49 F= -.12952570E+03 E0= -.12952570E+03  d E =-.161232E-04
damped:  g(F)=  0.000E+00 g(S)=  0.000E+00 dE (1.order)= 0.000E+00
 bond charge predicted
       N       E                     dE             d eps       ncg     rms          rms(c)
DAV:   1    -0.129525724300E+03   -0.20091E-04   -0.30354E-04   260   0.888E-02    0.352E-03
DAV:   2    -0.129525724809E+03   -0.50894E-06   -0.69305E-06   164   0.130E-02    0.221E-03
DAV:   3    -0.129525724868E+03   -0.58941E-07   -0.64583E-07   164   0.447E-03    0.121E-03
DAV:   4    -0.129525724907E+03   -0.38783E-07   -0.11019E-07   203   0.224E-03    0.270E-04
DAV:   5    -0.129525724915E+03   -0.84437E-08    0.14895E-08   164   0.111E-03    0.139E-04
DAV:   6    -0.129525724920E+03   -0.46184E-08    0.49143E-08   164   0.537E-04
  50 F= -.12952572E+03 E0= -.12952572E+03  d E =-.207080E-04
damped:  g(F)=  0.000E+00 g(S)=  0.000E+00 dE (1.order)= 0.000E+00
 bond charge predicted
       N       E                     dE             d eps       ncg     rms          rms(c)
DAV:   1    -0.129525749248E+03   -0.24333E-04   -0.48382E-04   260   0.112E-01    0.449E-03
DAV:   2    -0.129525750093E+03   -0.84466E-06   -0.11510E-05   181   0.167E-02    0.284E-03
DAV:   3    -0.129525750181E+03   -0.88757E-07   -0.11214E-06   183   0.573E-03    0.160E-03
DAV:   4    -0.129525750236E+03   -0.54272E-07   -0.23414E-07   232   0.291E-03    0.374E-04
DAV:   5    -0.129525750246E+03   -0.10393E-07   -0.20702E-08   164   0.145E-03    0.199E-04
DAV:   6    -0.129525750256E+03   -0.10294E-07    0.38178E-08   164   0.694E-04
  51 F= -.12952575E+03 E0= -.12952575E+03  d E =-.253366E-04
damped:  g(F)=  0.000E+00 g(S)=  0.000E+00 dE (1.order)= 0.000E+00
 bond charge predicted
       N       E                     dE             d eps       ncg     rms          rms(c)
DAV:   1    -0.129525778615E+03   -0.28369E-04   -0.74008E-04   260   0.139E-01    0.560E-03
DAV:   2    -0.129525779852E+03   -0.12362E-05   -0.17365E-05   201   0.206E-02    0.353E-03
DAV:   3    -0.129525779981E+03   -0.12900E-06   -0.17440E-06   215   0.709E-03    0.198E-03
DAV:   4    -0.129525780063E+03   -0.82510E-07   -0.39245E-07   221   0.359E-03    0.459E-04
DAV:   5    -0.129525780084E+03   -0.21202E-07   -0.67324E-08   164   0.179E-03    0.245E-04
DAV:   6    -0.129525780107E+03   -0.22590E-07    0.21992E-08   164   0.857E-04
  52 F= -.12952578E+03 E0= -.12952578E+03  d E =-.298507E-04
damped:  g(F)=  0.000E+00 g(S)=  0.000E+00 dE (1.order)= 0.000E+00
 bond charge predicted
       N       E                     dE             d eps       ncg     rms          rms(c)
DAV:   1    -0.129525814071E+03   -0.33987E-04   -0.10986E-03   301   0.168E-01    0.681E-03
DAV:   2    -0.129525815427E+03   -0.13564E-05   -0.20757E-05   173   0.215E-02    0.433E-03
DAV:   3    -0.129525815603E+03   -0.17531E-06   -0.19968E-06   188   0.720E-03    0.224E-03
DAV:   4    -0.129525815767E+03   -0.16384E-06   -0.46526E-07   172   0.368E-03    0.482E-04
DAV:   5    -0.129525815808E+03   -0.41594E-07   -0.85302E-08   164   0.179E-03    0.226E-04
DAV:   6    -0.129525815840E+03   -0.31638E-07    0.15637E-08   164   0.856E-04
  53 F= -.12952582E+03 E0= -.12952582E+03  d E =-.357328E-04
damped:  g(F)=  0.000E+00 g(S)=  0.000E+00 dE (1.order)= 0.000E+00
 bond charge predicted
       N       E                     dE             d eps       ncg     rms          rms(c)
DAV:   1    -0.129525857604E+03   -0.41796E-04   -0.16387E-03   293   0.205E-01    0.833E-03
DAV:   2    -0.129525859496E+03   -0.18923E-05   -0.29397E-05   200   0.256E-02    0.528E-03
DAV:   3    -0.129525859821E+03   -0.32503E-06   -0.28981E-06   164   0.868E-03    0.267E-03
DAV:   4    -0.129525860116E+03   -0.29424E-06   -0.68562E-07   207   0.440E-03    0.561E-04
DAV:   5    -0.129525860170E+03   -0.54132E-07   -0.14162E-07   164   0.215E-03    0.258E-04
DAV:   6    -0.129525860198E+03   -0.28589E-07    0.10574E-09   164   0.103E-03
  54 F= -.12952586E+03 E0= -.12952586E+03  d E =-.443586E-04
damped:  g(F)=  0.000E+00 g(S)=  0.000E+00 dE (1.order)= 0.000E+00
 bond charge predicted
       N       E                     dE             d eps       ncg     rms          rms(c)
DAV:   1    -0.129525910933E+03   -0.50764E-04   -0.25232E-03   292   0.255E-01    0.105E-02
DAV:   2    -0.129525913797E+03   -0.28634E-05   -0.45339E-05   238   0.318E-02    0.667E-03
DAV:   3    -0.129525914287E+03   -0.49036E-06   -0.46063E-06   200   0.109E-02    0.341E-03
DAV:   4    -0.129525914713E+03   -0.42558E-06   -0.11423E-06   261   0.560E-03    0.748E-04
DAV:   5    -0.129525914765E+03   -0.52215E-07   -0.27064E-07   173   0.279E-03    0.351E-04
DAV:   6    -0.129525914795E+03   -0.29624E-07   -0.40311E-08   164   0.133E-03
  55 F= -.12952591E+03 E0= -.12952591E+03  d E =-.545962E-04
damped:  g(F)=  0.000E+00 g(S)=  0.000E+00 dE (1.order)= 0.000E+00
 bond charge predicted
       N       E                     dE             d eps       ncg     rms          rms(c)
DAV:   1    -0.129525973792E+03   -0.59026E-04   -0.38933E-03   324   0.316E-01    0.131E-02
DAV:   2    -0.129525978313E+03   -0.45217E-05   -0.71390E-05   269   0.395E-02    0.843E-03
DAV:   3    -0.129525978815E+03   -0.50211E-06   -0.53263E-06   201   0.111E-02    0.447E-03
DAV:   4    -0.129525979444E+03   -0.62857E-06   -0.18610E-06   271   0.689E-03    0.944E-04
DAV:   5    -0.129525979498E+03   -0.54573E-07   -0.48300E-07   184   0.349E-03    0.475E-04
DAV:   6    -0.129525979541E+03   -0.42271E-07   -0.10213E-07   164   0.154E-03
  56 F= -.12952598E+03 E0= -.12952598E+03  d E =-.647461E-04
damped:  g(F)=  0.000E+00 g(S)=  0.000E+00 dE (1.order)= 0.000E+00
 bond charge predicted
       N       E                     dE             d eps       ncg     rms          rms(c)
DAV:   1    -0.129526048988E+03   -0.69489E-04   -0.59190E-03   324   0.389E-01    0.162E-02
DAV:   2    -0.129526055603E+03   -0.66159E-05   -0.10455E-04   259   0.480E-02    0.103E-02
DAV:   3    -0.129526056479E+03   -0.87571E-06   -0.79783E-06   200   0.135E-02    0.530E-03
DAV:   4    -0.129526057464E+03   -0.98469E-06   -0.27023E-06   262   0.817E-03    0.109E-03
DAV:   5    -0.129526057573E+03   -0.10922E-06   -0.71156E-07   165   0.407E-03    0.536E-04
DAV:   6    -0.129526057639E+03   -0.66238E-07   -0.17297E-07   164   0.180E-03
  57 F= -.12952606E+03 E0= -.12952606E+03  d E =-.780986E-04
damped:  g(F)=  0.000E+00 g(S)=  0.000E+00 dE (1.order)= 0.000E+00
 bond charge predicted
       N       E                     dE             d eps       ncg     rms          rms(c)
DAV:   1    -0.129526139763E+03   -0.82190E-04   -0.90912E-03   324   0.483E-01    0.203E-02
DAV:   2    -0.129526149953E+03   -0.10190E-04   -0.15998E-04   266   0.596E-02    0.128E-02
DAV:   3    -0.129526151436E+03   -0.14833E-05   -0.14346E-05   269   0.169E-02    0.665E-03
DAV:   4    -0.129526152725E+03   -0.12892E-05   -0.32256E-06   262   0.988E-03    0.136E-03
DAV:   5    -0.129526152857E+03   -0.13151E-06   -0.76980E-07   200   0.458E-03    0.713E-04
DAV:   6    -0.129526152945E+03   -0.88457E-07   -0.14810E-07   164   0.201E-03
  58 F= -.12952615E+03 E0= -.12952615E+03  d E =-.953059E-04
damped:  g(F)=  0.000E+00 g(S)=  0.000E+00 dE (1.order)= 0.000E+00
 bond charge predicted
       N       E                     dE             d eps       ncg     rms          rms(c)
DAV:   1    -0.129526246105E+03   -0.93248E-04   -0.13929E-02   325   0.597E-01    0.252E-02
DAV:   2    -0.129526263320E+03   -0.17216E-04   -0.26136E-04   332   0.737E-02    0.166E-02
DAV:   3    -0.129526263487E+03   -0.16672E-06   -0.87517E-06   212   0.168E-02    0.896E-03
DAV:   4    -0.129526265732E+03   -0.22451E-05   -0.56999E-06   237   0.126E-02    0.170E-03
DAV:   5    -0.129526265887E+03   -0.15453E-06   -0.12447E-06   202   0.589E-03    0.931E-04
DAV:   6    -0.129526266011E+03   -0.12446E-06   -0.18619E-07   164   0.217E-03
  59 F= -.12952627E+03 E0= -.12952627E+03  d E =-.113066E-03
damped:  g(F)=  0.000E+00 g(S)=  0.000E+00 dE (1.order)= 0.000E+00
 bond charge predicted
       N       E                     dE             d eps       ncg     rms          rms(c)
DAV:   1    -0.129526374378E+03   -0.10849E-03   -0.20915E-02   328   0.731E-01    0.310E-02
DAV:   2    -0.129526400186E+03   -0.25808E-04   -0.39100E-04   364   0.895E-02    0.207E-02
DAV:   3    -0.129526400020E+03    0.16579E-06   -0.89659E-06   201   0.182E-02    0.113E-02
DAV:   4    -0.129526403715E+03   -0.36954E-05   -0.86023E-06   236   0.154E-02    0.224E-03
DAV:   5    -0.129526403880E+03   -0.16473E-06   -0.19379E-06   235   0.742E-03    0.123E-03
DAV:   6    -0.129526404030E+03   -0.14995E-06   -0.29272E-07   173   0.266E-03
  60 F= -.12952640E+03 E0= -.12952640E+03  d E =-.138019E-03
damped:  g(F)=  0.000E+00 g(S)=  0.000E+00 dE (1.order)= 0.000E+00
 bond charge predicted
       N       E                     dE             d eps       ncg     rms          rms(c)
DAV:   1    -0.129526525182E+03   -0.12130E-03   -0.31345E-02   330   0.895E-01    0.380E-02
DAV:   2    -0.129526564455E+03   -0.39273E-04   -0.59216E-04   396   0.110E-01    0.256E-02
DAV:   3    -0.129526563634E+03    0.82103E-06   -0.12929E-05   216   0.221E-02    0.139E-02
DAV:   4    -0.129526569167E+03   -0.55327E-05   -0.12736E-05   244   0.185E-02    0.266E-03
DAV:   5    -0.129526569389E+03   -0.22214E-06   -0.26481E-06   255   0.871E-03    0.148E-03
DAV:   6    -0.129526569601E+03   -0.21249E-06   -0.37242E-07   216   0.320E-03
  61 F= -.12952657E+03 E0= -.12952657E+03  d E =-.165571E-03
damped:  g(F)=  0.000E+00 g(S)=  0.000E+00 dE (1.order)= 0.000E+00
 bond charge predicted
       N       E                     dE             d eps       ncg     rms          rms(c)
DAV:   1    -0.129526705938E+03   -0.13655E-03   -0.45907E-02   328   0.108E+00    0.457E-02
DAV:   2    -0.129526765503E+03   -0.59565E-04   -0.87941E-04   396   0.134E-01    0.306E-02
DAV:   3    -0.129526764122E+03    0.13814E-05   -0.18123E-05   209   0.260E-02    0.166E-02
DAV:   4    -0.129526772244E+03   -0.81221E-05   -0.19291E-05   268   0.222E-02    0.342E-03
DAV:   5    -0.129526772514E+03   -0.26969E-06   -0.37193E-06   236   0.105E-02    0.170E-03
DAV:   6    -0.129526772769E+03   -0.25504E-06   -0.44027E-07   205   0.350E-03
  62 F= -.12952677E+03 E0= -.12952677E+03  d E =-.203167E-03
damped:  g(F)=  0.000E+00 g(S)=  0.000E+00 dE (1.order)= 0.000E+00
 bond charge predicted
       N       E                     dE             d eps       ncg     rms          rms(c)
DAV:   1    -0.129526924746E+03   -0.15223E-03   -0.64132E-02   328   0.128E+00    0.533E-02
DAV:   2    -0.129527012717E+03   -0.87971E-04   -0.12653E-03   396   0.159E-01    0.359E-02
DAV:   3    -0.129527010223E+03    0.24938E-05   -0.24858E-05   200   0.307E-02    0.197E-02
DAV:   4    -0.129527021551E+03   -0.11328E-04   -0.26128E-05   268   0.263E-02    0.404E-03
DAV:   5    -0.129527021966E+03   -0.41493E-06   -0.52376E-06   226   0.125E-02    0.202E-03
DAV:   6    -0.129527022325E+03   -0.35926E-06   -0.63643E-07   165   0.413E-03
  63 F= -.12952702E+03 E0= -.12952702E+03  d E =-.249556E-03
damped:  g(F)=  0.000E+00 g(S)=  0.000E+00 dE (1.order)= 0.000E+00
 bond charge predicted
       N       E                     dE             d eps       ncg     rms          rms(c)
DAV:   1    -0.129527181970E+03   -0.16000E-03   -0.86458E-02   330   0.149E+00    0.606E-02
DAV:   2    -0.129527309936E+03   -0.12797E-03   -0.17833E-03   396   0.188E-01    0.409E-02
DAV:   3    -0.129527305579E+03    0.43570E-05   -0.31388E-05   208   0.346E-02    0.229E-02
DAV:   4    -0.129527320616E+03   -0.15038E-04   -0.34476E-05   300   0.308E-02    0.470E-03
DAV:   5    -0.129527321211E+03   -0.59461E-06   -0.71208E-06   236   0.145E-02    0.237E-03
DAV:   6    -0.129527321652E+03   -0.44107E-06   -0.87640E-07   175   0.480E-03
  64 F= -.12952732E+03 E0= -.12952732E+03  d E =-.299327E-03
damped:  g(F)=  0.000E+00 g(S)=  0.000E+00 dE (1.order)= 0.000E+00
 bond charge predicted
       N       E                     dE             d eps       ncg     rms          rms(c)
DAV:   1    -0.129527470884E+03   -0.14967E-03   -0.11835E-01   328   0.175E+00    0.691E-02
DAV:   2    -0.129527657071E+03   -0.18619E-03   -0.25259E-03   379   0.223E-01    0.467E-02
DAV:   3    -0.129527649955E+03    0.71155E-05   -0.40675E-05   232   0.386E-02    0.263E-02
DAV:   4    -0.129527669066E+03   -0.19111E-04   -0.40426E-05   292   0.346E-02    0.470E-03
DAV:   5    -0.129527670204E+03   -0.11381E-05   -0.82915E-06   237   0.152E-02    0.268E-03
DAV:   6    -0.129527670902E+03   -0.69724E-06   -0.93926E-07   216   0.497E-03
  65 F= -.12952767E+03 E0= -.12952767E+03  d E =-.349250E-03
damped:  g(F)=  0.000E+00 g(S)=  0.000E+00 dE (1.order)= 0.000E+00
 bond charge predicted
       N       E                     dE             d eps       ncg     rms          rms(c)
DAV:   1    -0.129527778839E+03   -0.10863E-03   -0.16760E-01   328   0.209E+00    0.814E-02
DAV:   2    -0.129528053680E+03   -0.27484E-03   -0.36754E-03   364   0.267E-01    0.559E-02
DAV:   3    -0.129528041369E+03    0.12311E-04   -0.64540E-05   315   0.471E-02    0.326E-02
DAV:   4    -0.129528067504E+03   -0.26136E-04   -0.56934E-05   260   0.428E-02    0.566E-03
DAV:   5    -0.129528069251E+03   -0.17468E-05   -0.13149E-05   272   0.190E-02    0.341E-03
DAV:   6    -0.129528070278E+03   -0.10267E-05   -0.15068E-06   216   0.625E-03
  66 F= -.12952807E+03 E0= -.12952807E+03  d E =-.399376E-03
damped:  g(F)=  0.000E+00 g(S)=  0.000E+00 dE (1.order)= 0.000E+00
 bond charge predicted
       N       E                     dE             d eps       ncg     rms          rms(c)
DAV:   1    -0.129527999667E+03    0.69584E-04   -0.26051E-01   329   0.261E+00    0.102E-01
DAV:   2    -0.129528446206E+03   -0.44654E-03   -0.59198E-03   376   0.341E-01    0.695E-02
DAV:   3    -0.129528423736E+03    0.22470E-04   -0.89916E-05   348   0.552E-02    0.398E-02
DAV:   4    -0.129528456339E+03   -0.32603E-04   -0.93140E-05   266   0.532E-02    0.653E-03
DAV:   5    -0.129528459097E+03   -0.27578E-05   -0.18833E-05   272   0.222E-02    0.404E-03
DAV:   6    -0.129528460745E+03   -0.16477E-05   -0.22782E-06   244   0.747E-03
  67 F= -.12952846E+03 E0= -.12952846E+03  d E =-.390467E-03
damped:  g(F)=  0.000E+00 g(S)=  0.000E+00 dE (1.order)= 0.000E+00
 bond charge predicted
       N       E                     dE             d eps       ncg     rms          rms(c)
DAV:   1    -0.129527049539E+03    0.14096E-02   -0.44755E-01   330   0.346E+00    0.155E-01
DAV:   2    -0.129528040568E+03   -0.99103E-03   -0.13344E-02   328   0.508E-01    0.111E-01
DAV:   3    -0.129527936628E+03    0.10394E-03   -0.38008E-04   430   0.103E-01    0.689E-02
DAV:   4    -0.129527928612E+03    0.80162E-05   -0.23502E-04   329   0.839E-02    0.141E-02
DAV:   5    -0.129527933746E+03   -0.51335E-05   -0.53092E-05   336   0.363E-02    0.834E-03
DAV:   6    -0.129527936448E+03   -0.27026E-05   -0.56793E-06   246   0.128E-02
  68 F= -.12952794E+03 E0= -.12952794E+03  d E =0.524296E-03
damped:  g(F)=  0.000E+00 g(S)=  0.000E+00 dE (1.order)= 0.000E+00
 bond charge predicted
       N       E                     dE             d eps       ncg     rms          rms(c)
DAV:   1    -0.129528785838E+03   -0.85209E-03   -0.11196E-01   339   0.169E+00    0.117E-01
DAV:   2    -0.129529151560E+03   -0.36572E-03   -0.50527E-03   361   0.310E-01    0.653E-02
DAV:   3    -0.129529098037E+03    0.53523E-04   -0.14583E-04   380   0.663E-02    0.364E-02
DAV:   4    -0.129529070634E+03    0.27403E-04   -0.95632E-05   297   0.492E-02    0.852E-03
DAV:   5    -0.129529068543E+03    0.20914E-05   -0.20188E-05   368   0.216E-02    0.470E-03
DAV:   6    -0.129529068265E+03    0.27756E-06   -0.23595E-06   264   0.801E-03
  69 F= -.12952907E+03 E0= -.12952907E+03  d E =-.113182E-02
damped:  g(F)=  0.000E+00 g(S)=  0.000E+00 dE (1.order)= 0.000E+00
 bond charge predicted
       N       E                     dE             d eps       ncg     rms          rms(c)
DAV:   1    -0.129529099393E+03   -0.30851E-04   -0.32959E-04   352   0.908E-02    0.657E-03
DAV:   2    -0.129529102446E+03   -0.30525E-05   -0.13468E-05   272   0.181E-02    0.337E-03
DAV:   3    -0.129529104702E+03   -0.22562E-05   -0.14820E-06   206   0.623E-03    0.175E-03
DAV:   4    -0.129529107613E+03   -0.29110E-05   -0.44219E-07   309   0.309E-03    0.634E-04
DAV:   5    -0.129529109490E+03   -0.18773E-05   -0.10706E-07   254   0.151E-03    0.275E-04
DAV:   6    -0.129529110753E+03   -0.12625E-05   -0.38235E-08   219   0.813E-04
  70 F= -.12952911E+03 E0= -.12952911E+03  d E =-.424876E-04
damped:  g(F)=  0.000E+00 g(S)=  0.000E+00 dE (1.order)= 0.000E+00
 bond charge predicted
       N       E                     dE             d eps       ncg     rms          rms(c)
DAV:   1    -0.129529141933E+03   -0.32443E-04   -0.98998E-04   348   0.159E-01    0.106E-02
DAV:   2    -0.129529145467E+03   -0.35336E-05   -0.40355E-05   251   0.293E-02    0.599E-03
DAV:   3    -0.129529146132E+03   -0.66561E-06   -0.45478E-06   231   0.103E-02    0.315E-03
DAV:   4    -0.129529147043E+03   -0.91086E-06   -0.15090E-06   296   0.544E-03    0.112E-03
DAV:   5    -0.129529147595E+03   -0.55159E-06   -0.29166E-07   221   0.301E-03    0.531E-04
DAV:   6    -0.129529147906E+03   -0.31170E-06   -0.41312E-08   272   0.138E-03
  71 F= -.12952915E+03 E0= -.12952915E+03  d E =-.371535E-04
damped:  g(F)=  0.000E+00 g(S)=  0.000E+00 dE (1.order)= 0.000E+00
 bond charge predicted
       N       E                     dE             d eps       ncg     rms          rms(c)
DAV:   1    -0.129529150444E+03   -0.28493E-05   -0.11678E-03   330   0.174E-01    0.111E-02
DAV:   2    -0.129529153260E+03   -0.28165E-05   -0.46935E-05   228   0.316E-02    0.647E-03
DAV:   3    -0.129529152951E+03    0.30925E-06   -0.52856E-06   264   0.111E-02    0.349E-03
DAV:   4    -0.129529152564E+03    0.38729E-06   -0.17498E-06   272   0.594E-03    0.123E-03
DAV:   5    -0.129529152462E+03    0.10224E-06   -0.35124E-07   272   0.332E-03    0.583E-04
DAV:   6    -0.129529152527E+03   -0.65319E-07   -0.61423E-08   222   0.153E-03
  72 F= -.12952915E+03 E0= -.12952915E+03  d E =-.462069E-05
damped:  g(F)=  0.000E+00 g(S)=  0.000E+00 dE (1.order)= 0.000E+00
 bond charge predicted
       N       E                     dE             d eps       ncg     rms          rms(c)
DAV:   1    -0.129529154514E+03   -0.20518E-05   -0.36794E-06   240   0.102E-02    0.599E-04
DAV:   2    -0.129529154695E+03   -0.18142E-06   -0.23936E-07   218   0.280E-03    0.399E-04
DAV:   3    -0.129529154861E+03   -0.16585E-06    0.42850E-09   212   0.886E-04    0.263E-04
DAV:   4    -0.129529155170E+03   -0.30928E-06    0.30126E-08   219   0.555E-04    0.673E-05
DAV:   5    -0.129529155311E+03   -0.14072E-06    0.40946E-08   242   0.280E-04    0.504E-05
DAV:   6    -0.129529155498E+03   -0.18716E-06    0.47330E-08   212   0.193E-04
  73 F= -.12952916E+03 E0= -.12952916E+03  d E =-.297092E-05
damped:  g(F)=  0.000E+00 g(S)=  0.000E+00 dE (1.order)= 0.000E+00
 bond charge predicted
       N       E                     dE             d eps       ncg     rms          rms(c)
DAV:   1    -0.129529158988E+03   -0.36773E-05   -0.13992E-05   251   0.198E-02    0.101E-03
DAV:   2    -0.129529159172E+03   -0.18413E-06   -0.97695E-07   222   0.543E-03    0.646E-04
DAV:   3    -0.129529159246E+03   -0.73344E-07   -0.71701E-08   241   0.167E-03    0.478E-04
DAV:   4    -0.129529159327E+03   -0.81679E-07    0.23189E-08   214   0.938E-04    0.155E-04
DAV:   5    -0.129529159361E+03   -0.33675E-07    0.48516E-08   209   0.475E-04    0.841E-05
DAV:   6    -0.129529159380E+03   -0.19227E-07    0.57808E-08   172   0.270E-04
  74 F= -.12952916E+03 E0= -.12952916E+03  d E =-.388220E-05
damped:  g(F)=  0.000E+00 g(S)=  0.000E+00 dE (1.order)= 0.000E+00
 bond charge predicted
       N       E                     dE             d eps       ncg     rms          rms(c)
DAV:   1    -0.129529163523E+03   -0.41618E-05   -0.29034E-05   170   0.286E-02    0.144E-03
DAV:   2    -0.129529163697E+03   -0.17399E-06   -0.20607E-06   167   0.780E-03    0.922E-04
DAV:   3    -0.129529163707E+03   -0.99417E-08   -0.20789E-07   164   0.242E-03    0.687E-04
DAV:   4    -0.129529163693E+03    0.14094E-07   -0.11928E-08   262   0.135E-03    0.224E-04
DAV:   5    -0.129529163694E+03   -0.10541E-08    0.39551E-08   164   0.681E-04    0.122E-04
DAV:   6    -0.129529163698E+03   -0.41446E-08    0.57247E-08   164   0.384E-04
  75 F= -.12952916E+03 E0= -.12952916E+03  d E =-.431757E-05
damped:  g(F)=  0.000E+00 g(S)=  0.000E+00 dE (1.order)= 0.000E+00
 bond charge predicted
       N       E                     dE             d eps       ncg     rms          rms(c)
DAV:   1    -0.129529168014E+03   -0.43205E-05   -0.45688E-05   164   0.359E-02    0.177E-03
DAV:   2    -0.129529168297E+03   -0.28301E-06   -0.32199E-06   164   0.974E-03    0.113E-03
DAV:   3    -0.129529168321E+03   -0.24002E-07   -0.36043E-07   175   0.303E-03    0.848E-04
DAV:   4    -0.129529168305E+03    0.16101E-07   -0.53335E-08   211   0.169E-03    0.278E-04
DAV:   5    -0.129529168300E+03    0.45702E-08    0.25192E-08   180   0.848E-04    0.150E-04
DAV:   6    -0.129529168306E+03   -0.53769E-08    0.52130E-08   164   0.473E-04
  76 F= -.12952917E+03 E0= -.12952917E+03  d E =-.460809E-05
damped:  g(F)=  0.000E+00 g(S)=  0.000E+00 dE (1.order)= 0.000E+00
 bond charge predicted
       N       E                     dE             d eps       ncg     rms          rms(c)
DAV:   1    -0.129529172394E+03   -0.40931E-05   -0.61036E-05   164   0.415E-02    0.200E-03
DAV:   2    -0.129529172757E+03   -0.36314E-06   -0.42126E-06   165   0.112E-02    0.126E-03
DAV:   3    -0.129529172788E+03   -0.31411E-07   -0.49702E-07   164   0.349E-03    0.955E-04
DAV:   4    -0.129529172772E+03    0.16450E-07   -0.88830E-08   166   0.194E-03    0.313E-04
DAV:   5    -0.129529172771E+03    0.90859E-09    0.12356E-08   164   0.963E-04    0.166E-04
DAV:   6    -0.129529172780E+03   -0.94051E-08    0.46960E-08   164   0.531E-04
  77 F= -.12952917E+03 E0= -.12952917E+03  d E =-.447433E-05
damped:  g(F)=  0.000E+00 g(S)=  0.000E+00 dE (1.order)= 0.000E+00
 bond charge predicted
       N       E                     dE             d eps       ncg     rms          rms(c)
DAV:   1    -0.129529176605E+03   -0.38338E-05   -0.73452E-05   164   0.455E-02    0.212E-03
DAV:   2    -0.129529177031E+03   -0.42671E-06   -0.49047E-06   164   0.121E-02    0.132E-03
DAV:   3    -0.129529177076E+03   -0.44996E-07   -0.59568E-07   164   0.379E-03    0.101E-03
DAV:   4    -0.129529177070E+03    0.59799E-08   -0.10942E-07   164   0.208E-03    0.329E-04
DAV:   5    -0.129529177075E+03   -0.44229E-08    0.64184E-09   164   0.102E-03    0.172E-04
DAV:   6    -0.129529177086E+03   -0.11696E-07    0.45143E-08   164   0.557E-04
  78 F= -.12952918E+03 E0= -.12952918E+03  d E =-.430622E-05
damped:  g(F)=  0.000E+00 g(S)=  0.000E+00 dE (1.order)= 0.000E+00
 bond charge predicted
       N       E                     dE             d eps       ncg     rms          rms(c)
DAV:   1    -0.129529181412E+03   -0.43376E-05   -0.10274E-04   164   0.534E-02    0.242E-03
DAV:   2    -0.129529181992E+03   -0.57927E-06   -0.65692E-06   164   0.140E-02    0.146E-03
DAV:   3    -0.129529182065E+03   -0.73352E-07   -0.81984E-07   164   0.439E-03    0.113E-03
DAV:   4    -0.129529182073E+03   -0.76707E-08   -0.15538E-07   164   0.238E-03    0.361E-04
DAV:   5    -0.129529182082E+03   -0.96989E-08   -0.52105E-09   164   0.115E-03    0.189E-04
DAV:   6    -0.129529182095E+03   -0.12481E-07    0.42696E-08   164   0.619E-04
  79 F= -.12952918E+03 E0= -.12952918E+03  d E =-.500836E-05
damped:  g(F)=  0.000E+00 g(S)=  0.000E+00 dE (1.order)= 0.000E+00
 bond charge predicted
       N       E                     dE             d eps       ncg     rms          rms(c)
DAV:   1    -0.129529188017E+03   -0.59347E-05   -0.14508E-04   196   0.623E-02    0.273E-03
DAV:   2    -0.129529188624E+03   -0.60689E-06   -0.69994E-06   164   0.135E-02    0.166E-03
DAV:   3    -0.129529188718E+03   -0.94519E-07   -0.90306E-07   164   0.439E-03    0.117E-03
DAV:   4    -0.129529188751E+03   -0.32137E-07   -0.19184E-07   164   0.262E-03    0.263E-04
DAV:   5    -0.129529188765E+03   -0.14357E-07   -0.11551E-08   164   0.119E-03    0.201E-04
DAV:   6    -0.129529188775E+03   -0.10251E-07    0.42259E-08   164   0.644E-04
  80 F= -.12952919E+03 E0= -.12952919E+03  d E =-.668039E-05
damped:  g(F)=  0.000E+00 g(S)=  0.000E+00 dE (1.order)= 0.000E+00
 bond charge predicted
       N       E                     dE             d eps       ncg     rms          rms(c)
DAV:   1    -0.129529198077E+03   -0.93120E-05   -0.21537E-04   260   0.741E-02    0.333E-03
DAV:   2    -0.129529198293E+03   -0.21615E-06   -0.38029E-06   164   0.102E-02    0.205E-03
DAV:   3    -0.129529198372E+03   -0.79182E-07   -0.41446E-07   164   0.382E-03    0.960E-04
DAV:   4    -0.129529198415E+03   -0.42949E-07   -0.54781E-08   182   0.184E-03    0.210E-04
DAV:   5    -0.129529198427E+03   -0.12008E-07    0.36439E-08   164   0.934E-04    0.112E-04
DAV:   6    -0.129529198433E+03   -0.57316E-08    0.59931E-08   164   0.444E-04
  81 F= -.12952920E+03 E0= -.12952920E+03  d E =-.965781E-05
damped:  g(F)=  0.000E+00 g(S)=  0.000E+00 dE (1.order)= 0.000E+00
 bond charge predicted
       N       E                     dE             d eps       ncg     rms          rms(c)
DAV:   1    -0.129529211504E+03   -0.13076E-04   -0.32271E-04   260   0.909E-02    0.402E-03
DAV:   2    -0.129529211858E+03   -0.35446E-06   -0.60764E-06   166   0.128E-02    0.252E-03
DAV:   3    -0.129529211964E+03   -0.10587E-06   -0.67547E-07   164   0.471E-03    0.124E-03
DAV:   4    -0.129529212022E+03   -0.58366E-07   -0.12277E-07   216   0.232E-03    0.279E-04
DAV:   5    -0.129529212036E+03   -0.13923E-07    0.18839E-08   164   0.121E-03    0.151E-04
DAV:   6    -0.129529212042E+03   -0.60709E-08    0.55400E-08   164   0.568E-04
  82 F= -.12952921E+03 E0= -.12952921E+03  d E =-.136093E-04
damped:  g(F)=  0.000E+00 g(S)=  0.000E+00 dE (1.order)= 0.000E+00
 bond charge predicted
       N       E                     dE             d eps       ncg     rms          rms(c)
DAV:   1    -0.129529228623E+03   -0.16587E-04   -0.49053E-04   260   0.113E-01    0.493E-03
DAV:   2    -0.129529229249E+03   -0.62667E-06   -0.10325E-05   184   0.164E-02    0.317E-03
DAV:   3    -0.129529229385E+03   -0.13536E-06   -0.11662E-06   164   0.597E-03    0.166E-03
DAV:   4    -0.129529229459E+03   -0.74027E-07   -0.26218E-07   245   0.306E-03    0.391E-04
DAV:   5    -0.129529229473E+03   -0.13700E-07   -0.21953E-08   164   0.162E-03    0.216E-04
DAV:   6    -0.129529229481E+03   -0.81609E-08    0.41109E-08   164   0.766E-04
  83 F= -.12952923E+03 E0= -.12952923E+03  d E =-.174385E-04
damped:  g(F)=  0.000E+00 g(S)=  0.000E+00 dE (1.order)= 0.000E+00
 bond charge predicted
       N       E                     dE             d eps       ncg     rms          rms(c)
DAV:   1    -0.129529249323E+03   -0.19851E-04   -0.72469E-04   292   0.137E-01    0.606E-03
DAV:   2    -0.129529249957E+03   -0.63415E-06   -0.12445E-05   200   0.171E-02    0.389E-03
DAV:   3    -0.129529250098E+03   -0.14069E-06   -0.13937E-06   164   0.617E-03    0.191E-03
DAV:   4    -0.129529250186E+03   -0.88125E-07   -0.33894E-07   187   0.320E-03    0.455E-04
DAV:   5    -0.129529250201E+03   -0.14262E-07   -0.43499E-08   164   0.167E-03    0.213E-04
DAV:   6    -0.129529250218E+03   -0.17065E-07    0.30555E-08   164   0.792E-04
  84 F= -.12952925E+03 E0= -.12952925E+03  d E =-.207369E-04
damped:  g(F)=  0.000E+00 g(S)=  0.000E+00 dE (1.order)= 0.000E+00
 bond charge predicted
       N       E                     dE             d eps       ncg     rms          rms(c)
DAV:   1    -0.129529274569E+03   -0.24369E-04   -0.10151E-03   292   0.161E-01    0.700E-03
DAV:   2    -0.129529275418E+03   -0.84910E-06   -0.16272E-05   164   0.196E-02    0.445E-03
DAV:   3    -0.129529275671E+03   -0.25242E-06   -0.18080E-06   164   0.701E-03    0.213E-03
DAV:   4    -0.129529275839E+03   -0.16876E-06   -0.43448E-07   164   0.352E-03    0.485E-04
DAV:   5    -0.129529275869E+03   -0.29842E-07   -0.69304E-08   164   0.180E-03    0.225E-04
DAV:   6    -0.129529275891E+03   -0.21621E-07    0.21497E-08   164   0.854E-04
  85 F= -.12952928E+03 E0= -.12952928E+03  d E =-.256733E-04
damped:  g(F)=  0.000E+00 g(S)=  0.000E+00 dE (1.order)= 0.000E+00
 bond charge predicted
       N       E                     dE             d eps       ncg     rms          rms(c)
DAV:   1    -0.129529307525E+03   -0.31656E-04   -0.14615E-03   292   0.194E-01    0.833E-03
DAV:   2    -0.129529308801E+03   -0.12763E-05   -0.23177E-05   200   0.234E-02    0.526E-03
DAV:   3    -0.129529309180E+03   -0.37856E-06   -0.25484E-06   200   0.829E-03    0.246E-03
DAV:   4    -0.129529309424E+03   -0.24379E-06   -0.61217E-07   214   0.410E-03    0.542E-04
DAV:   5    -0.129529309464E+03   -0.40797E-07   -0.10997E-07   164   0.202E-03    0.240E-04
DAV:   6    -0.129529309485E+03   -0.20364E-07    0.11674E-08   164   0.961E-04
  86 F= -.12952931E+03 E0= -.12952931E+03  d E =-.335939E-04
damped:  g(F)=  0.000E+00 g(S)=  0.000E+00 dE (1.order)= 0.000E+00
 bond charge predicted
       N       E                     dE             d eps       ncg     rms          rms(c)
DAV:   1    -0.129529348593E+03   -0.39129E-04   -0.21970E-03   292   0.239E-01    0.102E-02
DAV:   2    -0.129529350747E+03   -0.21534E-05   -0.37692E-05   245   0.296E-02    0.649E-03
DAV:   3    -0.129529351194E+03   -0.44740E-06   -0.40943E-06   238   0.104E-02    0.317E-03
DAV:   4    -0.129529351496E+03   -0.30206E-06   -0.10289E-06   271   0.524E-03    0.717E-04
DAV:   5    -0.129529351546E+03   -0.49259E-07   -0.22070E-07   164   0.256E-03    0.328E-04
DAV:   6    -0.129529351583E+03   -0.37740E-07   -0.21215E-08   164   0.121E-03
  87 F= -.12952935E+03 E0= -.12952935E+03  d E =-.420986E-04
damped:  g(F)=  0.000E+00 g(S)=  0.000E+00 dE (1.order)= 0.000E+00
 bond charge predicted
       N       E                     dE             d eps       ncg     rms          rms(c)
DAV:   1    -0.129529397487E+03   -0.45941E-04   -0.32160E-03   325   0.289E-01    0.123E-02
DAV:   2    -0.129529400824E+03   -0.33373E-05   -0.56829E-05   245   0.358E-02    0.784E-03
DAV:   3    -0.129529401283E+03   -0.45914E-06   -0.44835E-06   235   0.103E-02    0.399E-03
DAV:   4    -0.129529401768E+03   -0.48427E-06   -0.15391E-06   263   0.618E-03    0.829E-04
DAV:   5    -0.129529401843E+03   -0.75768E-07   -0.36873E-07   175   0.303E-03    0.409E-04
DAV:   6    -0.129529401897E+03   -0.53456E-07   -0.63538E-08   172   0.134E-03
  88 F= -.12952940E+03 E0= -.12952940E+03  d E =-.503135E-04
damped:  g(F)=  0.000E+00 g(S)=  0.000E+00 dE (1.order)= 0.000E+00
 bond charge predicted
       N       E                     dE             d eps       ncg     rms          rms(c)
DAV:   1    -0.129529459452E+03   -0.57608E-04   -0.45757E-03   328   0.344E-01    0.145E-02
DAV:   2    -0.129529464172E+03   -0.47204E-05   -0.78518E-05   268   0.419E-02    0.922E-03
DAV:   3    -0.129529464954E+03   -0.78175E-06   -0.61964E-06   200   0.121E-02    0.460E-03
DAV:   4    -0.129529465774E+03   -0.82048E-06   -0.20850E-06   244   0.714E-03    0.982E-04
DAV:   5    -0.129529465894E+03   -0.11978E-06   -0.51928E-07   200   0.359E-03    0.459E-04
DAV:   6    -0.129529465958E+03   -0.63361E-07   -0.10494E-07   164   0.158E-03
  89 F= -.12952947E+03 E0= -.12952947E+03  d E =-.640607E-04
damped:  g(F)=  0.000E+00 g(S)=  0.000E+00 dE (1.order)= 0.000E+00
 bond charge predicted
       N       E                     dE             d eps       ncg     rms          rms(c)
DAV:   1    -0.129529534444E+03   -0.68550E-04   -0.67746E-03   328   0.419E-01    0.176E-02
DAV:   2    -0.129529541886E+03   -0.74422E-05   -0.12136E-04   269   0.518E-02    0.114E-02
DAV:   3    -0.129529542839E+03   -0.95267E-06   -0.94340E-06   228   0.149E-02    0.589E-03
DAV:   4    -0.129529543987E+03   -0.11484E-05   -0.33205E-06   270   0.910E-03    0.130E-03
DAV:   5    -0.129529544093E+03   -0.10582E-06   -0.88508E-07   206   0.471E-03    0.625E-04
DAV:   6    -0.129529544164E+03   -0.70324E-07   -0.21213E-07   164   0.207E-03
  90 F= -.12952954E+03 E0= -.12952954E+03  d E =-.782060E-04
damped:  g(F)=  0.000E+00 g(S)=  0.000E+00 dE (1.order)= 0.000E+00
 bond charge predicted
       N       E                     dE             d eps       ncg     rms          rms(c)
DAV:   1    -0.129529623956E+03   -0.79862E-04   -0.98229E-03   328   0.505E-01    0.210E-02
DAV:   2    -0.129529634753E+03   -0.10797E-04   -0.17381E-04   268   0.620E-02    0.134E-02
DAV:   3    -0.129529636222E+03   -0.14697E-05   -0.13392E-05   211   0.177E-02    0.683E-03
DAV:   4    -0.129529637901E+03   -0.16783E-05   -0.45909E-06   270   0.106E-02    0.146E-03
DAV:   5    -0.129529638072E+03   -0.17096E-06   -0.12353E-06   201   0.538E-03    0.695E-04
DAV:   6    -0.129529638175E+03   -0.10309E-06   -0.32136E-07   164   0.237E-03
  91 F= -.12952964E+03 E0= -.12952964E+03  d E =-.940112E-04
damped:  g(F)=  0.000E+00 g(S)=  0.000E+00 dE (1.order)= 0.000E+00
 bond charge predicted
       N       E                     dE             d eps       ncg     rms          rms(c)
DAV:   1    -0.129529731597E+03   -0.93525E-04   -0.14421E-02   327   0.613E-01    0.254E-02
DAV:   2    -0.129529750128E+03   -0.18531E-04   -0.28036E-04   314   0.761E-02    0.168E-02
DAV:   3    -0.129529750355E+03   -0.22709E-06   -0.91934E-06   236   0.172E-02    0.907E-03
DAV:   4    -0.129529752745E+03   -0.23897E-05   -0.56705E-06   245   0.127E-02    0.174E-03
DAV:   5    -0.129529752910E+03   -0.16560E-06   -0.12789E-06   228   0.596E-03    0.956E-04
DAV:   6    -0.129529753038E+03   -0.12769E-06   -0.19815E-07   164   0.222E-03
  92 F= -.12952975E+03 E0= -.12952975E+03  d E =-.114863E-03
damped:  g(F)=  0.000E+00 g(S)=  0.000E+00 dE (1.order)= 0.000E+00
 bond charge predicted
       N       E                     dE             d eps       ncg     rms          rms(c)
DAV:   1    -0.129529859395E+03   -0.10649E-03   -0.20785E-02   328   0.735E-01    0.305E-02
DAV:   2    -0.129529886510E+03   -0.27115E-04   -0.40642E-04   364   0.907E-02    0.204E-02
DAV:   3    -0.129529886274E+03    0.23582E-06   -0.87224E-06   209   0.180E-02    0.111E-02
DAV:   4    -0.129529890012E+03   -0.37375E-05   -0.77970E-06   236   0.151E-02    0.217E-03
DAV:   5    -0.129529890227E+03   -0.21475E-06   -0.18385E-06   218   0.717E-03    0.119E-03
DAV:   6    -0.129529890403E+03   -0.17670E-06   -0.27600E-07   164   0.252E-03
  93 F= -.12952989E+03 E0= -.12952989E+03  d E =-.137365E-03
damped:  g(F)=  0.000E+00 g(S)=  0.000E+00 dE (1.order)= 0.000E+00
 bond charge predicted
       N       E                     dE             d eps       ncg     rms          rms(c)
DAV:   1    -0.129530008915E+03   -0.11869E-03   -0.30390E-02   329   0.889E-01    0.370E-02
DAV:   2    -0.129530049793E+03   -0.40878E-04   -0.60614E-04   396   0.110E-01    0.250E-02
DAV:   3    -0.129530048709E+03    0.10841E-05   -0.12280E-05   218   0.217E-02    0.138E-02
DAV:   4    -0.129530054176E+03   -0.54666E-05   -0.11942E-05   243   0.184E-02    0.278E-03
DAV:   5    -0.129530054419E+03   -0.24288E-06   -0.26285E-06   263   0.880E-03    0.146E-03
DAV:   6    -0.129530054646E+03   -0.22758E-06   -0.36127E-07   200   0.307E-03
  94 F= -.12953005E+03 E0= -.12953005E+03  d E =-.164243E-03
damped:  g(F)=  0.000E+00 g(S)=  0.000E+00 dE (1.order)= 0.000E+00
 bond charge predicted
       N       E                     dE             d eps       ncg     rms          rms(c)
DAV:   1    -0.129530184738E+03   -0.13032E-03   -0.44574E-02   334   0.108E+00    0.446E-02
DAV:   2    -0.129530244443E+03   -0.59705E-04   -0.88239E-04   377   0.134E-01    0.299E-02
DAV:   3    -0.129530243569E+03    0.87432E-06   -0.17288E-05   228   0.255E-02    0.163E-02
DAV:   4    -0.129530251432E+03   -0.78634E-05   -0.17858E-05   269   0.218E-02    0.333E-03
DAV:   5    -0.129530251764E+03   -0.33181E-06   -0.35338E-06   229   0.102E-02    0.169E-03
DAV:   6    -0.129530252045E+03   -0.28099E-06   -0.41977E-07   190   0.339E-03
  95 F= -.12953025E+03 E0= -.12953025E+03  d E =-.197399E-03
damped:  g(F)=  0.000E+00 g(S)=  0.000E+00 dE (1.order)= 0.000E+00
 bond charge predicted
       N       E                     dE             d eps       ncg     rms          rms(c)
DAV:   1    -0.129530387144E+03   -0.13538E-03   -0.64401E-02   329   0.129E+00    0.538E-02
DAV:   2    -0.129530472689E+03   -0.85545E-04   -0.12655E-03   380   0.160E-01    0.362E-02
DAV:   3    -0.129530471428E+03    0.12607E-05   -0.25436E-05   208   0.312E-02    0.197E-02
DAV:   4    -0.129530483095E+03   -0.11667E-04   -0.25834E-05   268   0.263E-02    0.414E-03
DAV:   5    -0.129530483531E+03   -0.43614E-06   -0.53352E-06   228   0.127E-02    0.205E-03
DAV:   6    -0.129530483925E+03   -0.39443E-06   -0.67443E-07   191   0.422E-03
  96 F= -.12953048E+03 E0= -.12953048E+03  d E =-.231880E-03
damped:  g(F)=  0.000E+00 g(S)=  0.000E+00 dE (1.order)= 0.000E+00
 bond charge predicted
       N       E                     dE             d eps       ncg     rms          rms(c)
DAV:   1    -0.129530619172E+03   -0.13564E-03   -0.93293E-02   331   0.156E+00    0.648E-02
DAV:   2    -0.129530742824E+03   -0.12365E-03   -0.18323E-03   379   0.192E-01    0.435E-02
DAV:   3    -0.129530741783E+03    0.10406E-05   -0.37735E-05   225   0.373E-02    0.236E-02
DAV:   4    -0.129530758514E+03   -0.16730E-04   -0.33673E-05   268   0.305E-02    0.440E-03
DAV:   5    -0.129530759229E+03   -0.71544E-06   -0.67287E-06   237   0.137E-02    0.249E-03
DAV:   6    -0.129530759816E+03   -0.58636E-06   -0.89829E-07   200   0.482E-03
  97 F= -.12953076E+03 E0= -.12953076E+03  d E =-.275890E-03
damped:  g(F)=  0.000E+00 g(S)=  0.000E+00 dE (1.order)= 0.000E+00
 bond charge predicted
       N       E                     dE             d eps       ncg     rms          rms(c)
DAV:   1    -0.129530861642E+03   -0.10241E-03   -0.13566E-01   328   0.188E+00    0.779E-02
DAV:   2    -0.129531052389E+03   -0.19075E-03   -0.27621E-03   387   0.235E-01    0.526E-02
DAV:   3    -0.129531047379E+03    0.50100E-05   -0.54305E-05   251   0.451E-02    0.293E-02
DAV:   4    -0.129531070350E+03   -0.22970E-04   -0.52183E-05   300   0.381E-02    0.572E-03
DAV:   5    -0.129531071335E+03   -0.98535E-06   -0.10977E-05   272   0.180E-02    0.309E-03
DAV:   6    -0.129531072046E+03   -0.71140E-06   -0.14195E-06   218   0.608E-03
  98 F= -.12953107E+03 E0= -.12953107E+03  d E =-.312231E-03
damped:  g(F)=  0.000E+00 g(S)=  0.000E+00 dE (1.order)= 0.000E+00
 bond charge predicted
       N       E                     dE             d eps       ncg     rms          rms(c)
DAV:   1    -0.129530899736E+03    0.17160E-03   -0.19738E-01   328   0.228E+00    0.975E-02
DAV:   2    -0.129531228746E+03   -0.32901E-03   -0.47449E-03   370   0.305E-01    0.670E-02
DAV:   3    -0.129531207943E+03    0.20803E-04   -0.95747E-05   357   0.567E-02    0.386E-02
DAV:   4    -0.129531233337E+03   -0.25394E-04   -0.88229E-05   266   0.498E-02    0.644E-03
DAV:   5    -0.129531235480E+03   -0.21432E-05   -0.16755E-05   272   0.205E-02    0.426E-03
DAV:   6    -0.129531236665E+03   -0.11847E-05   -0.22643E-06   244   0.749E-03
  99 F= -.12953124E+03 E0= -.12953124E+03  d E =-.164618E-03
damped:  g(F)=  0.000E+00 g(S)=  0.000E+00 dE (1.order)= 0.000E+00
 bond charge predicted
       N       E                     dE             d eps       ncg     rms          rms(c)
DAV:   1    -0.129531443438E+03   -0.20796E-03   -0.16930E-02   382   0.639E-01    0.449E-02
DAV:   2    -0.129531496582E+03   -0.53144E-04   -0.74476E-04   370   0.115E-01    0.253E-02
DAV:   3    -0.129531490160E+03    0.64224E-05   -0.19035E-05   268   0.237E-02    0.139E-02
DAV:   4    -0.129531488616E+03    0.15434E-05   -0.15768E-05   266   0.194E-02    0.294E-03
DAV:   5    -0.129531489314E+03   -0.69828E-06   -0.33429E-06   304   0.874E-03    0.169E-03
DAV:   6    -0.129531489941E+03   -0.62702E-06   -0.49951E-07   202   0.351E-03
 100 F= -.12953149E+03 E0= -.12953149E+03  d E =-.253277E-03
damped:  g(F)=  0.000E+00 g(S)=  0.000E+00 dE (1.order)= 0.000E+00
 bond charge predicted
       N       E                     dE             d eps       ncg     rms          rms(c)
DAV:   1    -0.129531493836E+03   -0.45220E-05   -0.20013E-05   310   0.232E-02    0.111E-03
DAV:   2    -0.129531494380E+03   -0.54327E-06   -0.10022E-06   272   0.534E-03    0.659E-04
DAV:   3    -0.129531494878E+03   -0.49805E-06   -0.12551E-07   209   0.174E-03    0.446E-04
DAV:   4    -0.129531495747E+03   -0.86901E-06   -0.40278E-08   292   0.993E-04    0.117E-04
DAV:   5    -0.129531496170E+03   -0.42304E-06    0.16626E-09   272   0.488E-04    0.938E-05
DAV:   6    -0.129531496817E+03   -0.64706E-06    0.80538E-09   232   0.382E-04
 101 F= -.12953150E+03 E0= -.12953150E+03  d E =-.687542E-05
damped:  g(F)=  0.000E+00 g(S)=  0.000E+00 dE (1.order)= 0.000E+00
 bond charge predicted
       N       E                     dE             d eps       ncg     rms          rms(c)
DAV:   1    -0.129531502922E+03   -0.67521E-05   -0.84884E-05   292   0.481E-02    0.204E-03
DAV:   2    -0.129531503477E+03   -0.55469E-06   -0.41474E-06   272   0.109E-02    0.121E-03
DAV:   3    -0.129531503693E+03   -0.21687E-06   -0.42929E-07   218   0.339E-03    0.848E-04
DAV:   4    -0.129531503990E+03   -0.29648E-06   -0.64112E-08   237   0.176E-03    0.167E-04
DAV:   5    -0.129531504100E+03   -0.10968E-06    0.18036E-08   272   0.819E-04    0.137E-04
DAV:   6    -0.129531504172E+03   -0.71894E-07    0.44001E-08   200   0.409E-04
 102 F= -.12953150E+03 E0= -.12953150E+03  d E =-.735465E-05
damped:  g(F)=  0.000E+00 g(S)=  0.000E+00 dE (1.order)= 0.000E+00
 bond charge predicted
       N       E                     dE             d eps       ncg     rms          rms(c)
DAV:   1    -0.129531511974E+03   -0.78743E-05   -0.17708E-04   303   0.688E-02    0.290E-03
DAV:   2    -0.129531512451E+03   -0.47726E-06   -0.55219E-06   191   0.126E-02    0.178E-03
DAV:   3    -0.129531512532E+03   -0.80990E-07   -0.53704E-07   200   0.418E-03    0.103E-03
DAV:   4    -0.129531512575E+03   -0.42510E-07   -0.82903E-08   245   0.207E-03    0.206E-04
DAV:   5    -0.129531512589E+03   -0.14573E-07    0.25510E-08   165   0.102E-03    0.158E-04
DAV:   6    -0.129531512601E+03   -0.11862E-07    0.55166E-08   165   0.492E-04
 103 F= -.12953151E+03 E0= -.12953151E+03  d E =-.842964E-05
damped:  g(F)=  0.000E+00 g(S)=  0.000E+00 dE (1.order)= 0.000E+00
 bond charge predicted
       N       E                     dE             d eps       ncg     rms          rms(c)
DAV:   1    -0.129531522432E+03   -0.98424E-05   -0.27205E-04   228   0.852E-02    0.355E-03
DAV:   2    -0.129531523092E+03   -0.66014E-06   -0.81411E-06   164   0.153E-02    0.215E-03
DAV:   3    -0.129531523190E+03   -0.98028E-07   -0.81398E-07   164   0.510E-03    0.122E-03
DAV:   4    -0.129531523220E+03   -0.30409E-07   -0.14261E-07   170   0.249E-03    0.237E-04
DAV:   5    -0.129531523228E+03   -0.80145E-08    0.10067E-08   165   0.122E-03    0.186E-04
DAV:   6    -0.129531523234E+03   -0.56025E-08    0.52003E-08   164   0.592E-04
 104 F= -.12953152E+03 E0= -.12953152E+03  d E =-.106327E-04
damped:  g(F)=  0.000E+00 g(S)=  0.000E+00 dE (1.order)= 0.000E+00
 bond charge predicted
       N       E                     dE             d eps       ncg     rms          rms(c)
DAV:   1    -0.129531536052E+03   -0.12823E-04   -0.36472E-04   260   0.982E-02    0.405E-03
DAV:   2    -0.129531536568E+03   -0.51648E-06   -0.74063E-06   164   0.138E-02    0.252E-03
DAV:   3    -0.129531536669E+03   -0.10066E-06   -0.74860E-07   164   0.492E-03    0.127E-03
DAV:   4    -0.129531536722E+03   -0.53014E-07   -0.13592E-07   164   0.242E-03    0.278E-04
DAV:   5    -0.129531536730E+03   -0.87130E-08    0.13828E-08   164   0.120E-03    0.147E-04
DAV:   6    -0.129531536737E+03   -0.61582E-08    0.53286E-08   164   0.578E-04
 105 F= -.12953154E+03 E0= -.12953154E+03  d E =-.135026E-04
damped:  g(F)=  0.000E+00 g(S)=  0.000E+00 dE (1.order)= 0.000E+00
 bond charge predicted
       N       E                     dE             d eps       ncg     rms          rms(c)
DAV:   1    -0.129531552478E+03   -0.15747E-04   -0.44252E-04   260   0.108E-01    0.443E-03
DAV:   2    -0.129531553115E+03   -0.63765E-06   -0.92529E-06   164   0.153E-02    0.278E-03
DAV:   3    -0.129531553233E+03   -0.11771E-06   -0.93964E-07   164   0.543E-03    0.147E-03
DAV:   4    -0.129531553304E+03   -0.71386E-07   -0.18036E-07   164   0.270E-03    0.347E-04
DAV:   5    -0.129531553316E+03   -0.12174E-07    0.14815E-09   164   0.136E-03    0.182E-04
DAV:   6    -0.129531553323E+03   -0.68794E-08    0.50791E-08   164   0.651E-04
 106 F= -.12953155E+03 E0= -.12953155E+03  d E =-.165868E-04
damped:  g(F)=  0.000E+00 g(S)=  0.000E+00 dE (1.order)= 0.000E+00
 reached required accuracy - stopping structural energy minimisation
