unknown system                          
           1
    30.000000    0.000000    0.000000
     0.000000   30.000000    0.000000
     0.000000    0.000000   30.000000
   H    C    N    O 
  12   6   2   2
Direct configuration=     1
   0.37877539  0.54392404  0.51799886
   0.38470400  0.49680247  0.48183661
   0.37935788  0.48880202  0.54033624
   0.45115818  0.45011434  0.49689676
   0.52098089  0.49174155  0.54963684
   0.56305988  0.42114062  0.53282884
   0.52192745  0.40544883  0.49384295
   0.50799784  0.40902733  0.55206203
   0.52307789  0.55455483  0.50534607
   0.60559898  0.55330331  0.45179262
   0.55784927  0.56445929  0.41865302
   0.57157003  0.60069571  0.46407708
   0.39356052  0.51073933  0.51454971
   0.44360881  0.51431064  0.52023040
   0.51507298  0.47276466  0.51873112
   0.52746751  0.42406696  0.52490457
   0.54392625  0.49456349  0.48167724
   0.57121671  0.56592493  0.45281431
   0.46732916  0.47709731  0.50951486
   0.54501936  0.53964180  0.48380817
   0.46202605  0.54845972  0.53475693
   0.56471495  0.47241765  0.45370623
Direct configuration=     2
   0.37877533  0.54392466  0.51799734
   0.38470197  0.49680131  0.48183376
   0.37935901  0.48880267  0.54033438
   0.45115849  0.45011523  0.49689387
   0.52098193  0.49173823  0.54963931
   0.56305933  0.42113848  0.53282801
   0.52192799  0.40544621  0.49384005
   0.50799684  0.40902654  0.55205961
   0.52307640  0.55455660  0.50534714
   0.60560030  0.55330413  0.45179436
   0.55784855  0.56446083  0.41865432
   0.57156899  0.60069740  0.46408045
   0.39356074  0.51073962  0.51454787
   0.44360637  0.51430457  0.52023297
   0.51507305  0.47276531  0.51873026
   0.52746771  0.42406534  0.52490189
   0.54393120  0.49455840  0.48167150
   0.57121637  0.56592500  0.45281771
   0.46733025  0.47709991  0.50951273
   0.54501877  0.53964548  0.48381305
   0.46202725  0.54846386  0.53475893
   0.56471316  0.47242108  0.45371195
Direct configuration=     3
   0.37877537  0.54392606  0.51799444
   0.38469791  0.49679899  0.48182857
   0.37936139  0.48880425  0.54033113
   0.45115928  0.45011715  0.49688882
   0.52098431  0.49173199  0.54964426
   0.56305835  0.42113440  0.53282698
   0.52192906  0.40544074  0.49383517
   0.50799508  0.40902538  0.55205569
   0.52307327  0.55456032  0.50534888
   0.60560258  0.55330531  0.45179649
   0.55784650  0.56446321  0.41865607
   0.57156687  0.60070042  0.46408578
   0.39356108  0.51074030  0.51454438
   0.44360239  0.51429424  0.52023869
   0.51507349  0.47276659  0.51872882
   0.52746803  0.42406233  0.52489726
   0.54393960  0.49455002  0.48166192
   0.57121543  0.56592498  0.45282338
   0.46733241  0.47710485  0.50950877
   0.54501796  0.53965191  0.48382189
   0.46202908  0.54847122  0.53476237
   0.56471053  0.47242619  0.45372170
Direct configuration=     4
   0.37877583  0.54392855  0.51799031
   0.38469177  0.49679548  0.48182181
   0.37936522  0.48880728  0.54032723
   0.45116086  0.45012048  0.49688271
   0.52098859  0.49172334  0.54965179
   0.56305719  0.42112865  0.53282676
   0.52193069  0.40543195  0.49382973
   0.50799287  0.40902454  0.55205166
   0.52306806  0.55456643  0.50535073
   0.60560520  0.55330616  0.45179685
   0.55784206  0.56446533  0.41865700
   0.57156355  0.60070415  0.46409078
   0.39356148  0.51074147  0.51453947
   0.44359852  0.51428323  0.52024877
   0.51507486  0.47276835  0.51872724
   0.52746833  0.42405822  0.52489172
   0.54394852  0.49454220  0.48165239
   0.57121342  0.56592465  0.45282955
   0.46733569  0.47711152  0.50950333
   0.54501770  0.53965918  0.48383316
   0.46203038  0.54847990  0.53476622
   0.56470919  0.47242975  0.45373222
Direct configuration=     5
   0.37877700  0.54393225  0.51798542
   0.38468403  0.49679107  0.48181492
   0.37937039  0.48881209  0.54032382
   0.45116343  0.45012536  0.49687725
   0.52099501  0.49171349  0.54966134
   0.56305617  0.42112197  0.53282848
   0.52193278  0.40542007  0.49382578
   0.50799074  0.40902487  0.55204936
   0.52306084  0.55457482  0.50535180
   0.60560717  0.55330588  0.45179303
   0.55783443  0.56446583  0.41865574
   0.57155916  0.60070759  0.46409257
   0.39356191  0.51074313  0.51453382
   0.44359649  0.51427591  0.52026334
   0.51507762  0.47277029  0.51872616
   0.52746848  0.42405366  0.52488687
   0.54395456  0.49453900  0.48164728
   0.57121011  0.56592385  0.45283373
   0.46733991  0.47711882  0.50949732
   0.54501873  0.53966486  0.48384434
   0.46202999  0.54848755  0.53476930
   0.56471104  0.47242847  0.45373977
Direct configuration=     6
   0.37877905  0.54393710  0.51798024
   0.38467535  0.49678615  0.48180918
   0.37937660  0.48881875  0.54032183
   0.45116699  0.45013163  0.49687376
   0.52100353  0.49170355  0.54967222
   0.56305550  0.42111511  0.53283287
   0.52193519  0.40540568  0.49382495
   0.50798908  0.40902698  0.55205016
   0.52305211  0.55458497  0.50535123
   0.60560762  0.55330394  0.45178346
   0.55782325  0.56446369  0.41865148
   0.57155391  0.60070991  0.46408906
   0.39356239  0.51074534  0.51452819
   0.44359701  0.51427431  0.52028123
   0.51508192  0.47277216  0.51872613
   0.52746850  0.42404922  0.52488394
   0.54395653  0.49454145  0.48164811
   0.57120551  0.56592232  0.45283376
   0.46734486  0.47712608  0.50949181
   0.54502123  0.53966778  0.48385359
   0.46202767  0.54849327  0.53477119
   0.56471620  0.47242147  0.45374306
Direct configuration=     7
   0.37878200  0.54394291  0.51797484
   0.38466620  0.49678096  0.48180512
   0.37938349  0.48882710  0.54032151
   0.45117148  0.45013924  0.49687246
   0.52101397  0.49169369  0.54968394
   0.56305514  0.42110823  0.53283990
   0.52193787  0.40538924  0.49382761
   0.50798796  0.40903093  0.55205414
   0.52304233  0.55459636  0.50534863
   0.60560605  0.55330042  0.45176813
   0.55780872  0.56445879  0.41864465
   0.57154790  0.60071084  0.46408000
   0.39356296  0.51074810  0.51452282
   0.44359983  0.51427826  0.52030072
   0.51508771  0.47277366  0.51872737
   0.52746844  0.42404505  0.52488308
   0.54395515  0.49454834  0.48165424
   0.57119988  0.56592020  0.45282901
   0.46735044  0.47713321  0.50948736
   0.54502505  0.53966809  0.48386053
   0.46202370  0.54849727  0.53477235
   0.56472373  0.47240998  0.45374305
Direct configuration=     8
   0.37878639  0.54395033  0.51796862
   0.38465598  0.49677513  0.48180321
   0.37939163  0.48883834  0.54032347
   0.45117746  0.45014910  0.49687381
   0.52102771  0.49168291  0.54969756
   0.56305498  0.42110073  0.53285092
   0.52194113  0.40536894  0.49383524
   0.50798738  0.40903767  0.55206254
   0.52303103  0.55460980  0.50534256
   0.60560130  0.55329469  0.45174397
   0.55778857  0.56444983  0.41863435
   0.57154038  0.60070992  0.46406295
   0.39356387  0.51075199  0.51451757
   0.44360452  0.51428709  0.52032154
   0.51509572  0.47277470  0.51873055
   0.52746851  0.42404085  0.52488479
   0.54395234  0.49455728  0.48166422
   0.57119262  0.56591691  0.45281708
   0.46735738  0.47714153  0.50948460
   0.54503025  0.53966664  0.48386552
   0.46201848  0.54850156  0.53477399
   0.56473233  0.47239490  0.45374239
Direct configuration=     9
   0.37879253  0.54395954  0.51796143
   0.38464512  0.49676878  0.48180456
   0.37940089  0.48885305  0.54032859
   0.45118496  0.45016137  0.49687858
   0.52104532  0.49167110  0.54971306
   0.56305488  0.42109267  0.53286690
   0.52194504  0.40534445  0.49384961
   0.50798749  0.40904804  0.55207659
   0.52301917  0.55462470  0.50533097
   0.60559199  0.55328629  0.45170864
   0.55776146  0.56443557  0.41861997
   0.57153105  0.60070649  0.46403562
   0.39356556  0.51075760  0.51451312
   0.44360943  0.51429760  0.52034000
   0.51510615  0.47277515  0.51873646
   0.52746916  0.42403666  0.52489000
   0.54395226  0.49456221  0.48167356
   0.57118356  0.56591173  0.45279560
   0.46736608  0.47715244  0.50948530
   0.54503603  0.53966549  0.48386846
   0.46201381  0.54850969  0.53477821
   0.56473804  0.47238023  0.45374622
Direct configuration=    10
   0.37880066  0.54397063  0.51795307
   0.38463417  0.49676208  0.48181027
   0.37941102  0.48887179  0.54033778
   0.45119398  0.45017607  0.49688748
   0.52106727  0.49165824  0.54973025
   0.56305463  0.42108414  0.53288864
   0.52194958  0.40531569  0.49387239
   0.50798841  0.40906283  0.55209740
   0.52300805  0.55464010  0.50531162
   0.60557694  0.55327474  0.45165985
   0.55772599  0.56441482  0.41860064
   0.57151971  0.60069998  0.46399579
   0.39356856  0.51076547  0.51451040
   0.44361317  0.51430637  0.52035219
   0.51511868  0.47277500  0.51874582
   0.52747094  0.42403241  0.52489983
   0.54395899  0.49455729  0.48167800
   0.57117207  0.56590350  0.45276306
   0.46737692  0.47716733  0.50949139
   0.54504144  0.53966704  0.48386907
   0.46201167  0.54852537  0.53478715
   0.56473716  0.47236993  0.45375938
Direct configuration=    11
   0.37881120  0.54398398  0.51794330
   0.38462373  0.49675517  0.48182175
   0.37942181  0.48889548  0.54035224
   0.45120483  0.45019367  0.49690167
   0.52109443  0.49164447  0.54974896
   0.56305411  0.42107527  0.53291746
   0.52195470  0.40528234  0.49390587
   0.50799039  0.40908309  0.55212661
   0.52299862  0.55465514  0.50528200
   0.60555502  0.55325919  0.45159413
   0.55767988  0.56438584  0.41857425
   0.57150618  0.60068973  0.46394000
   0.39357350  0.51077604  0.51451054
   0.44361620  0.51431410  0.52035536
   0.51513308  0.47277435  0.51875946
   0.52747421  0.42402787  0.52491638
   0.54397238  0.49454307  0.48167917
   0.57115662  0.56589073  0.45271833
   0.46739046  0.47718660  0.50950481
   0.54504660  0.53967153  0.48386566
   0.46201231  0.54854950  0.53480176
   0.56472971  0.47236367  0.45378178
Direct configuration=    12
   0.37882470  0.54400016  0.51793163
   0.38461433  0.49674806  0.48184035
   0.37943307  0.48892536  0.54037327
   0.45121852  0.45021548  0.49692245
   0.52112803  0.49162984  0.54976915
   0.56305358  0.42106593  0.53295481
   0.52196028  0.40524393  0.49395229
   0.50799349  0.40910956  0.55216588
   0.52299071  0.55466944  0.50524039
   0.60552567  0.55323858  0.45150768
   0.55762013  0.56434679  0.41853794
   0.57149046  0.60067527  0.46386436
   0.39358095  0.51078927  0.51451433
   0.44362316  0.51433001  0.52035071
   0.51514951  0.47277311  0.51877780
   0.52747862  0.42402280  0.52494203
   0.54398504  0.49453187  0.48168892
   0.57113399  0.56587234  0.45266162
   0.46740712  0.47720821  0.50952658
   0.54505345  0.53967465  0.48385471
   0.46201224  0.54857634  0.53482023
   0.56472295  0.47235382  0.45380438
Direct configuration=    13
   0.37884118  0.54401935  0.51791613
   0.38460636  0.49674064  0.48186474
   0.37944432  0.48896186  0.54039970
   0.45123640  0.45024359  0.49694726
   0.52116834  0.49161176  0.54979143
   0.56305304  0.42105423  0.53299929
   0.52196612  0.40520051  0.49400914
   0.50799613  0.40914003  0.55221246
   0.52298281  0.55468310  0.50518894
   0.60548995  0.55321428  0.45140273
   0.55754562  0.56429921  0.41849309
   0.57147270  0.60065831  0.46377157
   0.39359119  0.51080431  0.51452029
   0.44363958  0.51436505  0.52034285
   0.51516819  0.47277090  0.51880017
   0.52748292  0.42401621  0.52497538
   0.54398987  0.49453776  0.48171987
   0.57110159  0.56584963  0.45259781
   0.46742673  0.47722842  0.50955459
   0.54506417  0.53967103  0.48383607
   0.46200594  0.54859631  0.53484014
   0.56472683  0.47233434  0.45381790
Direct configuration=    14
   0.37886043  0.54404201  0.51789134
   0.38460086  0.49673194  0.48189130
   0.37945560  0.48900715  0.54042913
   0.45125976  0.45028062  0.49696808
   0.52121635  0.49158320  0.54982006
   0.56305212  0.42103487  0.53304819
   0.52197179  0.40515153  0.49407104
   0.50799343  0.40916935  0.55226125
   0.52297413  0.55469596  0.50512992
   0.60544702  0.55318983  0.45128282
   0.55745225  0.56424575  0.41844482
   0.57145172  0.60064289  0.46366773
   0.39360696  0.51082310  0.51452522
   0.44366205  0.51441085  0.52033282
   0.51518921  0.47276791  0.51882573
   0.52748639  0.42400513  0.52501174
   0.54400209  0.49454693  0.48175796
   0.57105807  0.56582359  0.45253118
   0.46744997  0.47724874  0.50958718
   0.54507634  0.53966416  0.48381845
   0.46199581  0.54861434  0.53486635
   0.56473762  0.47232097  0.45383923
Direct configuration=    15
   0.37886050  0.54404223  0.51788999
   0.38460120  0.49673170  0.48189064
   0.37945577  0.48900794  0.54042868
   0.45125999  0.45028107  0.49696620
   0.52121676  0.49158161  0.54982117
   0.56305196  0.42103360  0.53304781
   0.52197168  0.40515124  0.49407006
   0.50799236  0.40916832  0.55226029
   0.52297384  0.55469598  0.50513034
   0.60544643  0.55319057  0.45128306
   0.55745096  0.56424610  0.41844593
   0.57145132  0.60064355  0.46366861
   0.39360741  0.51082347  0.51452448
   0.44366083  0.51440766  0.52033251
   0.51518945  0.47276770  0.51882568
   0.52748627  0.42400462  0.52501108
   0.54400489  0.49454383  0.48175556
   0.57105772  0.56582380  0.45253158
   0.46745033  0.47724984  0.50958716
   0.54507590  0.53966543  0.48382033
   0.46199700  0.54861664  0.53486795
   0.56473743  0.47232390  0.45384243
Direct configuration=    16
   0.37886068  0.54404272  0.51788729
   0.38460187  0.49673120  0.48188941
   0.37945611  0.48900959  0.54042786
   0.45126052  0.45028206  0.49696258
   0.52121764  0.49157851  0.54982337
   0.56305164  0.42103111  0.53304717
   0.52197145  0.40515063  0.49406827
   0.50799027  0.40916635  0.55225850
   0.52297316  0.55469608  0.50513118
   0.60544520  0.55319193  0.45128328
   0.55744821  0.56424667  0.41844799
   0.57145050  0.60064480  0.46367008
   0.39360829  0.51082421  0.51452303
   0.44365892  0.51440229  0.52033227
   0.51518999  0.47276728  0.51882565
   0.52748596  0.42400360  0.52500993
   0.54400974  0.49453870  0.48175177
   0.57105688  0.56582422  0.45253226
   0.46745107  0.47725179  0.50958712
   0.54507521  0.53966754  0.48382377
   0.46199897  0.54862052  0.53487081
   0.56473770  0.47232900  0.45384797
Direct configuration=    17
   0.37886110  0.54404357  0.51788319
   0.38460292  0.49673042  0.48188775
   0.37945668  0.48901232  0.54042682
   0.45126153  0.45028382  0.49695743
   0.52121914  0.49157398  0.54982667
   0.56305119  0.42102740  0.53304650
   0.52197107  0.40514962  0.49406597
   0.50798720  0.40916354  0.55225615
   0.52297183  0.55469637  0.50513241
   0.60544321  0.55319376  0.45128291
   0.55744361  0.56424720  0.41845062
   0.57144921  0.60064648  0.46367158
   0.39360957  0.51082527  0.51452093
   0.44365724  0.51439673  0.52033292
   0.51519102  0.47276662  0.51882581
   0.52748540  0.42400204  0.52500859
   0.54401528  0.49453358  0.48174852
   0.57105525  0.56582484  0.45253298
   0.46745218  0.47725410  0.50958702
   0.54507463  0.53966973  0.48382822
   0.46200100  0.54862465  0.53487435
   0.56473972  0.47233477  0.45385421
Direct configuration=    18
   0.37886186  0.54404488  0.51787794
   0.38460432  0.49672935  0.48188597
   0.37945749  0.48901618  0.54042588
   0.45126314  0.45028645  0.49695142
   0.52122137  0.49156848  0.54983088
   0.56305066  0.42102275  0.53304619
   0.52197053  0.40514819  0.49406380
   0.50798343  0.40916029  0.55225381
   0.52296976  0.55469693  0.50513385
   0.60544043  0.55319567  0.45128120
   0.55743694  0.56424727  0.41845310
   0.57144748  0.60064826  0.46367220
   0.39361112  0.51082659  0.51451847
   0.44365684  0.51439346  0.52033517
   0.51519263  0.47276574  0.51882634
   0.52748455  0.42400003  0.52500758
   0.54401975  0.49453081  0.48174793
   0.57105260  0.56582556  0.45253334
   0.46745365  0.47725609  0.50958690
   0.54507457  0.53967107  0.48383276
   0.46200226  0.54862747  0.53487771
   0.56474460  0.47233928  0.45385912
Direct configuration=    19
   0.37886303  0.54404669  0.51787191
   0.38460604  0.49672805  0.48188445
   0.37945856  0.48902115  0.54042538
   0.45126534  0.45028990  0.49694530
   0.52122434  0.49156261  0.54983573
   0.56305010  0.42101760  0.53304662
   0.52196985  0.40514638  0.49406243
   0.50797934  0.40915706  0.55225210
   0.52296703  0.55469777  0.50513511
   0.60543685  0.55319726  0.45127744
   0.55742818  0.56424647  0.41845472
   0.57144536  0.60064979  0.46367107
   0.39361287  0.51082814  0.51451598
   0.44365815  0.51439356  0.52033914
   0.51519480  0.47276473  0.51882744
   0.52748350  0.42399771  0.52500736
   0.54402246  0.49453117  0.48175064
   0.57104876  0.56582617  0.45253280
   0.46745544  0.47725745  0.50958697
   0.54507516  0.53967117  0.48383663
   0.46200248  0.54862841  0.53488043
   0.56475236  0.47234155  0.45386190
Direct configuration=    20
   0.37886466  0.54404909  0.51786535
   0.38460809  0.49672653  0.48188351
   0.37945992  0.48902730  0.54042567
   0.45126810  0.45029408  0.49693966
   0.52122813  0.49155683  0.54984110
   0.56304953  0.42101222  0.53304817
   0.52196901  0.40514418  0.49406250
   0.50797516  0.40915427  0.55225166
   0.52296384  0.55469884  0.50513573
   0.60543233  0.55319817  0.45127084
   0.55741712  0.56424437  0.41845483
   0.57144283  0.60065079  0.46366733
   0.39361484  0.51083001  0.51451381
   0.44366107  0.51439687  0.52034454
   0.51519751  0.47276368  0.51882931
   0.52748240  0.42399522  0.52500837
   0.54402371  0.49453408  0.48175608
   0.57104367  0.56582639  0.45253071
   0.46745757  0.47725826  0.50958757
   0.54507627  0.53967018  0.48383942
   0.46200194  0.54862793  0.53488248
   0.56476230  0.47234155  0.45386291
Direct configuration=    21
   0.37886708  0.54405253  0.51785763
   0.38461083  0.49672457  0.48188350
   0.37946181  0.48903563  0.54042730
   0.45127172  0.45029943  0.49693450
   0.52123338  0.49155094  0.54984760
   0.56304891  0.42100625  0.53305166
   0.52196789  0.40514127  0.49406500
   0.50797066  0.40915211  0.55225334
   0.52296010  0.55470019  0.50513505
   0.60542596  0.55319799  0.45125926
   0.55740180  0.56423999  0.41845250
   0.57143943  0.60065099  0.46365918
   0.39361745  0.51083264  0.51451206
   0.44366556  0.51440297  0.52035137
   0.51520104  0.47276257  0.51883253
   0.52748129  0.42399236  0.52501140
   0.54402468  0.49453837  0.48176357
   0.57103653  0.56582579  0.45252576
   0.46746042  0.47725897  0.50958943
   0.54507776  0.53966840  0.48384107
   0.46200125  0.54862710  0.53488438
   0.56477446  0.47233976  0.45386347
Direct configuration=    22
   0.37887048  0.54405731  0.51784852
   0.38461452  0.49672207  0.48188479
   0.37946434  0.48904669  0.54043076
   0.45127626  0.45030604  0.49693001
   0.52124044  0.49154503  0.54985549
   0.56304812  0.42099960  0.53305769
   0.52196640  0.40513752  0.49407075
   0.50796584  0.40915091  0.55225783
   0.52295610  0.55470166  0.50513229
   0.60541708  0.55319636  0.45124119
   0.55738111  0.56423266  0.41844707
   0.57143488  0.60065012  0.46364532
   0.39362101  0.51083641  0.51451103
   0.44367068  0.51440974  0.52035853
   0.51520543  0.47276140  0.51883752
   0.52748039  0.42398907  0.52501695
   0.54402758  0.49454118  0.48177071
   0.57102697  0.56582397  0.45251676
   0.46746427  0.47726039  0.50959334
   0.54507914  0.53966685  0.48384169
   0.46200167  0.54862806  0.53488712
   0.56478728  0.47233776  0.45386620
Direct configuration=    23
   0.37887505  0.54406368  0.51783777
   0.38461951  0.49671890  0.48188777
   0.37946759  0.48906095  0.54043655
   0.45128177  0.45031395  0.49692636
   0.52124960  0.49153920  0.54986495
   0.56304707  0.42099216  0.53306683
   0.52196448  0.40513280  0.49408051
   0.50796075  0.40915099  0.55226576
   0.52295221  0.55470303  0.50512668
   0.60540500  0.55319295  0.45121519
   0.55735405  0.56422173  0.41843799
   0.57142882  0.60064800  0.46362455
   0.39362584  0.51084174  0.51451100
   0.44367526  0.51441448  0.52036446
   0.51521075  0.47276015  0.51884459
   0.52747991  0.42398537  0.52502547
   0.54403483  0.49453928  0.48177488
   0.57101463  0.56582034  0.45250259
   0.46746942  0.47726361  0.50960024
   0.54507982  0.53966667  0.48384148
   0.46200473  0.54863342  0.53489189
   0.56479890  0.47233739  0.45387403
Direct configuration=    24
   0.37888115  0.54407205  0.51782502
   0.38462619  0.49671489  0.48189294
   0.37947161  0.48907910  0.54044525
   0.45128848  0.45032346  0.49692382
   0.52126131  0.49153357  0.54987621
   0.56304571  0.42098369  0.53307989
   0.52196201  0.40512683  0.49409516
   0.50795543  0.40915268  0.55227791
   0.52294847  0.55470418  0.50511755
   0.60538878  0.55318733  0.45117934
   0.55731916  0.56420640  0.41842456
   0.57142079  0.60064442  0.46359527
   0.39363223  0.51084900  0.51451212
   0.44367949  0.51441660  0.52036858
   0.51521731  0.47275871  0.51885405
   0.52747983  0.42398132  0.52503758
   0.54404701  0.49453205  0.48177613
   0.57099889  0.56581432  0.45248171
   0.46747613  0.47726928  0.50961101
   0.54507965  0.53966796  0.48384017
   0.46201116  0.54864426  0.53489936
   0.56480919  0.47233869  0.45388796
Direct configuration=    25
   0.37888936  0.54408302  0.51780960
   0.38463510  0.49670976  0.48190099
   0.37947650  0.48910215  0.54045755
   0.45129713  0.45033552  0.49692275
   0.52127623  0.49152821  0.54988945
   0.56304405  0.42097377  0.53309790
   0.52195880  0.40511914  0.49411559
   0.50794991  0.40915626  0.55229510
   0.52294418  0.55470525  0.50510468
   0.60536727  0.55317898  0.45113113
   0.55727445  0.56418571  0.41840583
   0.57141017  0.60063912  0.46355534
   0.39364037  0.51085835  0.51451433
   0.44368581  0.51442054  0.52037231
   0.51522601  0.47275730  0.51886662
   0.52747972  0.42397710  0.52505408
   0.54406078  0.49452449  0.48178003
   0.57097865  0.56580515  0.45245241
   0.46748460  0.47727675  0.50962608
   0.54507949  0.53966862  0.48383644
   0.46201964  0.54865772  0.53490865
   0.56482177  0.47233790  0.45390469
Direct configuration=    26
   0.37890035  0.54409711  0.51779079
   0.38464665  0.49670319  0.48191218
   0.37948232  0.48913094  0.54047367
   0.45130872  0.45035142  0.49692321
   0.52129487  0.49152301  0.54990489
   0.56304215  0.42096176  0.53312144
   0.52195468  0.40510930  0.49414182
   0.50794410  0.40916163  0.55231747
   0.52293824  0.55470659  0.50508868
   0.60533973  0.55316764  0.45106915
   0.55721841  0.56415933  0.41838145
   0.57139632  0.60063191  0.46350365
   0.39365038  0.51086960  0.51451723
   0.44369788  0.51443392  0.52037883
   0.51523756  0.47275577  0.51888282
   0.52747896  0.42397289  0.52507523
   0.54407112  0.49452391  0.48179425
   0.57095264  0.56579303  0.45241383
   0.46749502  0.47728414  0.50964499
   0.54508069  0.53966551  0.48382899
   0.46202736  0.54866810  0.53491783
   0.56484182  0.47233007  0.45391918
Direct configuration=    27
   0.37891493  0.54411495  0.51776700
   0.38466167  0.49669443  0.48192635
   0.37948936  0.48916694  0.54049358
   0.45132415  0.45037235  0.49692420
   0.52131785  0.49151737  0.54992372
   0.56303962  0.42094627  0.53315103
   0.52194935  0.40509680  0.49417332
   0.50793739  0.40916834  0.55234481
   0.52293043  0.55470809  0.50506960
   0.60530491  0.55315311  0.45099155
   0.55714840  0.56412689  0.41835104
   0.57137792  0.60062244  0.46343924
   0.39366312  0.51088326  0.51452048
   0.44371567  0.51445623  0.52038869
   0.51525236  0.47275443  0.51890242
   0.52747760  0.42396841  0.52510112
   0.54408123  0.49452635  0.48181641
   0.57091926  0.56577900  0.45236571
   0.46750826  0.47729160  0.50966789
   0.54508279  0.53965956  0.48381883
   0.46203531  0.54867619  0.53492802
   0.56486842  0.47231776  0.45393661
Direct configuration=    28
   0.37893342  0.54413647  0.51773606
   0.38468101  0.49668257  0.48194174
   0.37949788  0.48921096  0.54051577
   0.45134304  0.45039778  0.49692216
   0.52134497  0.49150959  0.54994750
   0.56303549  0.42092525  0.53318535
   0.52194260  0.40508191  0.49420736
   0.50792838  0.40917487  0.55237461
   0.52292206  0.55470877  0.50504763
   0.60526188  0.55313654  0.45089974
   0.55706314  0.56408983  0.41831616
   0.57135342  0.60061153  0.46336501
   0.39368012  0.51090098  0.51452354
   0.44373099  0.51446974  0.52039647
   0.51526935  0.47275355  0.51892449
   0.52747682  0.42396272  0.52512930
   0.54410401  0.49451516  0.48183186
   0.57087923  0.56576370  0.45231164
   0.46752565  0.47730383  0.50969525
   0.54508246  0.53965789  0.48381125
   0.46205087  0.54869442  0.53494570
   0.56489319  0.47231270  0.45397304
Direct configuration=    29
   0.37895736  0.54416233  0.51769330
   0.38470641  0.49666616  0.48195553
   0.37950807  0.48926510  0.54053681
   0.45136716  0.45042945  0.49691060
   0.52137611  0.49149604  0.54997759
   0.56302863  0.42089445  0.53322176
   0.52193406  0.40506530  0.49423829
   0.50791462  0.40917794  0.55240031
   0.52291024  0.55470895  0.50502801
   0.60520940  0.55312083  0.45079712
   0.55696040  0.56405198  0.41828159
   0.57132024  0.60060241  0.46328721
   0.39370222  0.51092190  0.51452341
   0.44374845  0.51448055  0.52040792
   0.51528985  0.47275105  0.51894924
   0.52747489  0.42395312  0.52515501
   0.54413074  0.49450664  0.48185706
   0.57083020  0.56574779  0.45225820
   0.46754760  0.47732057  0.50972361
   0.54508146  0.53965751  0.48380910
   0.46207055  0.54871478  0.53497073
   0.56493132  0.47230593  0.45401924
Direct configuration=    30
   0.37898684  0.54419138  0.51763719
   0.38473800  0.49664565  0.48196511
   0.37951853  0.48932711  0.54055288
   0.45139780  0.45046864  0.49688528
   0.52140880  0.49147354  0.55001244
   0.56301857  0.42085239  0.53325494
   0.52192393  0.40504877  0.49425874
   0.50789465  0.40917438  0.55241380
   0.52289135  0.55470986  0.50501807
   0.60515012  0.55310962  0.45069417
   0.55684570  0.56401922  0.41825677
   0.57127854  0.60059803  0.46321662
   0.39372693  0.51094304  0.51451608
   0.44377850  0.51451025  0.52043233
   0.51531605  0.47274584  0.51897648
   0.52746917  0.42393704  0.52517421
   0.54415388  0.49451501  0.48190294
   0.57077247  0.56573522  0.45221075
   0.46757157  0.47733387  0.50974592
   0.54508261  0.53965226  0.48381368
   0.46208329  0.54871744  0.53499749
   0.56499265  0.47229219  0.45406575
Direct configuration=    31
   0.37902131  0.54422222  0.51756549
   0.38477773  0.49662098  0.48196751
   0.37952803  0.48939506  0.54056192
   0.45143207  0.45051151  0.49683988
   0.52144097  0.49143938  0.55005365
   0.56300384  0.42079711  0.53328014
   0.52191238  0.40503444  0.49426230
   0.50786568  0.40916104  0.55240977
   0.52286956  0.55470894  0.50501823
   0.60508444  0.55310635  0.45059899
   0.55672202  0.56399588  0.41824885
   0.57122755  0.60059935  0.46316237
   0.39375686  0.51096628  0.51450084
   0.44379787  0.51451046  0.52044726
   0.51534213  0.47273618  0.51900629
   0.52746228  0.42391434  0.52518197
   0.54420354  0.49449728  0.48193162
   0.57070899  0.56573046  0.45217336
   0.46760140  0.47735455  0.50976459
   0.54507817  0.53965843  0.48383564
   0.46210970  0.54873855  0.53504471
   0.56505348  0.47230198  0.45414629
Direct configuration=    32
   0.37906339  0.54425481  0.51747543
   0.38482707  0.49659159  0.48196118
   0.37953474  0.48946853  0.54056295
   0.45147396  0.45056157  0.49677315
   0.52147206  0.49139313  0.55010157
   0.56298454  0.42072688  0.53329467
   0.52189913  0.40502368  0.49424434
   0.50782589  0.40913412  0.55238440
   0.52283845  0.55470665  0.50503577
   0.60501182  0.55311391  0.45051555
   0.55658764  0.56398509  0.41825800
   0.57116699  0.60060737  0.46312838
   0.39379065  0.51098943  0.51447563
   0.44383533  0.51453840  0.52047222
   0.51537027  0.47271892  0.51903473
   0.52745137  0.42388393  0.52517839
   0.54423317  0.49451748  0.48200693
   0.57063876  0.56573725  0.45215469
   0.46763558  0.47736909  0.50977343
   0.54507737  0.53965489  0.48386609
   0.46212404  0.54873019  0.53509620
   0.56515775  0.47229384  0.45420795
Direct configuration=    33
   0.37911361  0.54429088  0.51736525
   0.38488955  0.49655695  0.48194756
   0.37953965  0.48955020  0.54055826
   0.45152220  0.45061674  0.49668602
   0.52150089  0.49133444  0.55015788
   0.56296160  0.42064202  0.53329993
   0.52188443  0.40501902  0.49420886
   0.50777385  0.40909372  0.55234243
   0.52280823  0.55469746  0.50506079
   0.60492828  0.55313184  0.45043808
   0.55643730  0.56398423  0.41828035
   0.57109449  0.60062360  0.46311224
   0.39383255  0.51101577  0.51444329
   0.44386141  0.51453119  0.52047742
   0.51539846  0.47270003  0.51906831
   0.52743776  0.42384406  0.52516344
   0.54431910  0.49447568  0.48203253
   0.57056456  0.56574701  0.45214850
   0.46767273  0.47739059  0.50977949
   0.54506305  0.53967236  0.48391687
   0.46215720  0.54874490  0.53517425
   0.56523908  0.47233806  0.45433991
Direct configuration=    34
   0.37911588  0.54429213  0.51736198
   0.38489188  0.49655599  0.48194762
   0.37953984  0.48955269  0.54055828
   0.45152400  0.45061799  0.49668450
   0.52150117  0.49133386  0.55015881
   0.56296136  0.42064009  0.53329984
   0.52188397  0.40501968  0.49420766
   0.50777250  0.40909165  0.55234152
   0.52280517  0.55469732  0.50506348
   0.60492717  0.55313231  0.45043619
   0.55643331  0.56398478  0.41828054
   0.57109283  0.60062391  0.46311171
   0.39383274  0.51101566  0.51444188
   0.44386898  0.51454508  0.52048265
   0.51540034  0.47269800  0.51906839
   0.52743590  0.42384359  0.52516431
   0.54429886  0.49450480  0.48206265
   0.57055998  0.56574851  0.45214891
   0.46767385  0.47738853  0.50977846
   0.54506688  0.53966245  0.48391282
   0.46215233  0.54873346  0.53517169
   0.56526105  0.47231827  0.45431776
Direct configuration=    35
   0.37912108  0.54429561  0.51735493
   0.38489739  0.49655363  0.48194892
   0.37954091  0.48955947  0.54056019
   0.45152752  0.45062018  0.49668292
   0.52150220  0.49133364  0.55016193
   0.56296082  0.42063660  0.53330158
   0.52188284  0.40502114  0.49420820
   0.50776970  0.40908875  0.55234297
   0.52280177  0.55469595  0.50506492
   0.60492238  0.55313191  0.45042734