   6   6   0   0
  0.4500000E+04  0.3000000E-08  0.3000000E-08  0.3000000E-08  0.0000000E+00
  1.000000000000000E-004
  CAR 
 unknown system                          
      2.02387639    -25.88868709  301     -6.16344545      1.00000000
    -25.889  0.0000E+00  0.0000E+00
    -25.796  0.0000E+00  0.0000E+00
    -25.703  0.0000E+00  0.0000E+00
    -25.610  0.0000E+00  0.0000E+00
    -25.517  0.0000E+00  0.0000E+00
    -25.423  0.0000E+00  0.0000E+00
    -25.330  0.0000E+00  0.0000E+00
    -25.237  0.0000E+00  0.0000E+00
    -25.144  0.0000E+00  0.0000E+00
    -25.051  0.7955E-17  0.7401E-18
    -24.958  0.1404E-14  0.1314E-15
    -24.865  0.1782E-12  0.1671E-13
    -24.772  0.1478E-10  0.1392E-11
    -24.679  0.8015E-09  0.7597E-10
    -24.586  0.2842E-07  0.2721E-08
    -24.493  0.6600E-06  0.6413E-07
    -24.400  0.1004E-04  0.9987E-06
    -24.307  0.1003E-03  0.1033E-04
    -24.214  0.6577E-03  0.7152E-04
    -24.121  0.2836E-02  0.3353E-03
    -24.028  0.8043E-02  0.1084E-02
    -23.935  0.1502E-01  0.2481E-02
    -23.842  0.1847E-01  0.4200E-02
    -23.749  0.1497E-01  0.5592E-02
    -23.656  0.7985E-02  0.6335E-02
    -23.563  0.2805E-02  0.6596E-02
    -23.470  0.6483E-03  0.6657E-02
    -23.377  0.9850E-04  0.6666E-02
    -23.284  0.9829E-05  0.6667E-02
    -23.190  0.6435E-06  0.6667E-02
    -23.097  0.2761E-07  0.6667E-02
    -23.004  0.7759E-09  0.6667E-02
    -22.911  0.1426E-10  0.6667E-02
    -22.818  0.1713E-12  0.6667E-02
    -22.725  0.1344E-14  0.6667E-02
    -22.632  0.7955E-17  0.6667E-02
    -22.539  0.0000E+00  0.6667E-02
    -22.446  0.0000E+00  0.6667E-02
    -22.353  0.0000E+00  0.6667E-02
    -22.260  0.0000E+00  0.6667E-02
    -22.167  0.0000E+00  0.6667E-02
    -22.074  0.0000E+00  0.6667E-02
    -21.981  0.0000E+00  0.6667E-02
    -21.888  0.0000E+00  0.6667E-02
    -21.795  0.0000E+00  0.6667E-02
    -21.702  0.0000E+00  0.6667E-02
    -21.609  0.0000E+00  0.6667E-02
    -21.516  0.0000E+00  0.6667E-02
    -21.423  0.0000E+00  0.6667E-02
    -21.330  0.0000E+00  0.6667E-02
    -21.237  0.0000E+00  0.6667E-02
    -21.144  0.0000E+00  0.6667E-02
    -21.051  0.0000E+00  0.6667E-02
    -20.957  0.0000E+00  0.6667E-02
    -20.864  0.0000E+00  0.6667E-02
    -20.771  0.0000E+00  0.6667E-02
    -20.678  0.0000E+00  0.6667E-02
    -20.585  0.0000E+00  0.6667E-02
    -20.492  0.0000E+00  0.6667E-02
    -20.399  0.2466E-15  0.6667E-02
    -20.306  0.3594E-13  0.6667E-02
    -20.213  0.3447E-11  0.6667E-02
    -20.120  0.2159E-09  0.6667E-02
    -20.027  0.8847E-08  0.6667E-02
    -19.934  0.2373E-06  0.6667E-02
    -19.841  0.4169E-05  0.6667E-02
    -19.748  0.4804E-04  0.6672E-02
    -19.655  0.3635E-03  0.6705E-02
    -19.562  0.1807E-02  0.6874E-02
    -19.469  0.5911E-02  0.7424E-02
    -19.376  0.1273E-01  0.8608E-02
    -19.283  0.1804E-01  0.1029E-01
    -19.190  0.1685E-01  0.1185E-01
    -19.097  0.1036E-01  0.1282E-01
    -19.004  0.4198E-02  0.1321E-01
    -18.911  0.1119E-02  0.1331E-01
    -18.818  0.1961E-03  0.1333E-01
    -18.724  0.2258E-04  0.1333E-01
    -18.631  0.1707E-05  0.1333E-01
    -18.538  0.8457E-07  0.1333E-01
    -18.445  0.2745E-08  0.1333E-01
    -18.352  0.5830E-10  0.1333E-01
    -18.259  0.8094E-12  0.1333E-01
    -18.166  0.7335E-14  0.1333E-01
    -18.073  0.4773E-16  0.1333E-01
    -17.980  0.0000E+00  0.1333E-01
    -17.887  0.0000E+00  0.1333E-01
    -17.794  0.0000E+00  0.1333E-01
    -17.701  0.0000E+00  0.1333E-01
    -17.608  0.0000E+00  0.1333E-01
    -17.515  0.0000E+00  0.1333E-01
    -17.422  0.0000E+00  0.1333E-01
    -17.329  0.0000E+00  0.1333E-01
    -17.236  0.0000E+00  0.1333E-01
    -17.143  0.0000E+00  0.1333E-01
    -17.050  0.0000E+00  0.1333E-01
    -16.957  0.0000E+00  0.1333E-01
    -16.864  0.0000E+00  0.1333E-01
    -16.771  0.0000E+00  0.1333E-01
    -16.678  0.0000E+00  0.1333E-01
    -16.584  0.0000E+00  0.1333E-01
    -16.491  0.0000E+00  0.1333E-01
    -16.398  0.0000E+00  0.1333E-01
    -16.305  0.0000E+00  0.1333E-01
    -16.212  0.0000E+00  0.1333E-01
    -16.119  0.0000E+00  0.1333E-01
    -16.026  0.0000E+00  0.1333E-01
    -15.933  0.0000E+00  0.1333E-01
    -15.840  0.0000E+00  0.1333E-01
    -15.747  0.0000E+00  0.1333E-01
    -15.654  0.0000E+00  0.1333E-01
    -15.561  0.0000E+00  0.1333E-01
    -15.468  0.0000E+00  0.1333E-01
    -15.375  0.0000E+00  0.1333E-01
    -15.282  0.0000E+00  0.1333E-01
    -15.189  0.0000E+00  0.1333E-01
    -15.096  0.0000E+00  0.1333E-01
    -15.003  0.8751E-16  0.1333E-01
    -14.910  0.1367E-13  0.1333E-01
    -14.817  0.1429E-11  0.1333E-01
    -14.724  0.9747E-10  0.1333E-01
    -14.631  0.4348E-08  0.1333E-01
    -14.538  0.1269E-06  0.1333E-01
    -14.445  0.2427E-05  0.1333E-01
    -14.351  0.3044E-04  0.1334E-01
    -14.258  0.2505E-03  0.1336E-01
    -14.165  0.1355E-02  0.1349E-01
    -14.072  0.4820E-02  0.1393E-01
    -13.979  0.1128E-01  0.1498E-01
    -13.886  0.1740E-01  0.1660E-01
    -13.793  0.1766E-01  0.1825E-01
    -13.700  0.1181E-01  0.1935E-01
    -13.607  0.5203E-02  0.1983E-01
    -13.514  0.1508E-02  0.1997E-01
    -13.421  0.2876E-03  0.2000E-01
    -13.328  0.3603E-04  0.2000E-01
    -13.235  0.2963E-05  0.2000E-01
    -13.142  0.1598E-06  0.2000E-01
    -13.049  0.5646E-08  0.2000E-01
    -12.956  0.1306E-09  0.2000E-01
    -12.863  0.1977E-11  0.2000E-01
    -12.770  0.4408E-12  0.2000E-01
    -12.677  0.3441E-10  0.2000E-01
    -12.584  0.1837E-08  0.2000E-01
    -12.491  0.6416E-07  0.2000E-01
    -12.398  0.1467E-05  0.2000E-01
    -12.305  0.2199E-04  0.2000E-01
    -12.212  0.2163E-03  0.2002E-01
    -12.118  0.1397E-02  0.2015E-01
    -12.025  0.5932E-02  0.2070E-01
    -11.932  0.1657E-01  0.2225E-01
    -11.839  0.3048E-01  0.2508E-01
    -11.746  0.3693E-01  0.2852E-01
    -11.653  0.2947E-01  0.3126E-01
    -11.560  0.1549E-01  0.3270E-01
    -11.467  0.5360E-02  0.3320E-01
    -11.374  0.1220E-02  0.3331E-01
    -11.281  0.1826E-03  0.3333E-01
    -11.188  0.1795E-04  0.3333E-01
    -11.095  0.1157E-05  0.3333E-01
    -11.002  0.4892E-07  0.3333E-01
    -10.909  0.1354E-08  0.3333E-01
    -10.816  0.2450E-10  0.3333E-01
    -10.723  0.2898E-12  0.3333E-01
    -10.630  0.2251E-14  0.3333E-01
    -10.537  0.0000E+00  0.3333E-01
    -10.444  0.0000E+00  0.3333E-01
    -10.351  0.0000E+00  0.3333E-01
    -10.258  0.0000E+00  0.3333E-01
    -10.165  0.0000E+00  0.3333E-01
    -10.072  0.0000E+00  0.3333E-01
     -9.979  0.0000E+00  0.3333E-01
     -9.885  0.0000E+00  0.3333E-01
     -9.792  0.0000E+00  0.3333E-01
     -9.699  0.0000E+00  0.3333E-01
     -9.606  0.0000E+00  0.3333E-01
     -9.513  0.0000E+00  0.3333E-01
     -9.420  0.1949E-15  0.3333E-01
     -9.327  0.3080E-13  0.3333E-01
     -9.234  0.3184E-11  0.3333E-01
     -9.141  0.2150E-09  0.3333E-01
     -9.048  0.9491E-08  0.3333E-01
     -8.955  0.2742E-06  0.3333E-01
     -8.862  0.5190E-05  0.3333E-01
     -8.769  0.6442E-04  0.3334E-01
     -8.676  0.5248E-03  0.3339E-01
     -8.583  0.2810E-02  0.3365E-01
     -8.490  0.9892E-02  0.3457E-01
     -8.397  0.2292E-01  0.3670E-01
     -8.304  0.3498E-01  0.3996E-01
     -8.211  0.3515E-01  0.4323E-01
     -8.118  0.2327E-01  0.4539E-01
     -8.025  0.1015E-01  0.4634E-01
     -7.932  0.2911E-02  0.4661E-01
     -7.839  0.5495E-03  0.4666E-01
     -7.746  0.6885E-04  0.4667E-01
     -7.652  0.1635E-04  0.4667E-01
     -7.559  0.1069E-03  0.4668E-01
     -7.466  0.6906E-03  0.4674E-01
     -7.373  0.2941E-02  0.4702E-01
     -7.280  0.8240E-02  0.4778E-01
     -7.187  0.1520E-01  0.4920E-01
     -7.094  0.1847E-01  0.5091E-01
     -7.001  0.1478E-01  0.5229E-01
     -6.908  0.7791E-02  0.5301E-01
     -6.815  0.2703E-02  0.5327E-01
     -6.722  0.6172E-03  0.5332E-01
     -6.629  0.9263E-04  0.5333E-01
     -6.536  0.9130E-05  0.5333E-01
     -6.443  0.5904E-06  0.5333E-01
     -6.350  0.2502E-07  0.5333E-01
     -6.257  0.6944E-09  0.5333E-01
     -6.164  0.1260E-10  0.5333E-01
     -6.071  0.1495E-12  0.5333E-01
     -5.978  0.1161E-14  0.5333E-01
     -5.885  0.0000E+00  0.5333E-01
     -5.792  0.0000E+00  0.5333E-01
     -5.699  0.0000E+00  0.5333E-01
     -5.606  0.0000E+00  0.5333E-01
     -5.513  0.0000E+00  0.5333E-01
     -5.419  0.0000E+00  0.5333E-01
     -5.326  0.0000E+00  0.5333E-01
     -5.233  0.0000E+00  0.5333E-01
     -5.140  0.0000E+00  0.5333E-01
     -5.047  0.0000E+00  0.5333E-01
     -4.954  0.0000E+00  0.5333E-01
     -4.861  0.0000E+00  0.5333E-01
     -4.768  0.0000E+00  0.5333E-01
     -4.675  0.0000E+00  0.5333E-01
     -4.582  0.0000E+00  0.5333E-01
     -4.489  0.0000E+00  0.5333E-01
     -4.396  0.0000E+00  0.5333E-01
     -4.303  0.0000E+00  0.5333E-01
     -4.210  0.0000E+00  0.5333E-01
     -4.117  0.0000E+00  0.5333E-01
     -4.024  0.0000E+00  0.5333E-01
     -3.931  0.0000E+00  0.5333E-01
     -3.838  0.0000E+00  0.5333E-01
     -3.745  0.0000E+00  0.5333E-01
     -3.652  0.0000E+00  0.5333E-01
     -3.559  0.0000E+00  0.5333E-01
     -3.466  0.0000E+00  0.5333E-01
     -3.373  0.0000E+00  0.5333E-01
     -3.280  0.0000E+00  0.5333E-01
     -3.186  0.0000E+00  0.5333E-01
     -3.093  0.0000E+00  0.5333E-01
     -3.000  0.0000E+00  0.5333E-01
     -2.907  0.0000E+00  0.5333E-01
     -2.814  0.0000E+00  0.5333E-01
     -2.721  0.0000E+00  0.5333E-01
     -2.628  0.0000E+00  0.5333E-01
     -2.535  0.0000E+00  0.5333E-01
     -2.442  0.0000E+00  0.5333E-01
     -2.349  0.0000E+00  0.5333E-01
     -2.256  0.0000E+00  0.5333E-01
     -2.163  0.0000E+00  0.5333E-01
     -2.070  0.0000E+00  0.5333E-01
     -1.977  0.0000E+00  0.5333E-01
     -1.884  0.7955E-16  0.5333E-01
     -1.791  0.1303E-13  0.5333E-01
     -1.698  0.1374E-11  0.5333E-01
     -1.605  0.9493E-10  0.5333E-01
     -1.512  0.4307E-08  0.5333E-01
     -1.419  0.1287E-06  0.5333E-01
     -1.326  0.2544E-05  0.5333E-01
     -1.233  0.3346E-04  0.5334E-01
     -1.140  0.2949E-03  0.5336E-01
     -1.047  0.1758E-02  0.5353E-01
     -0.953  0.7147E-02  0.5419E-01
     -0.860  0.2000E-01  0.5605E-01
     -0.767  0.3869E-01  0.5965E-01
     -0.674  0.5179E-01  0.6447E-01
     -0.581  0.4776E-01  0.6891E-01
     -0.488  0.3012E-01  0.7172E-01
     -0.395  0.1297E-01  0.7292E-01
     -0.302  0.4350E-02  0.7333E-01
     -0.209  0.3520E-02  0.7366E-01
     -0.116  0.8085E-02  0.7441E-01
     -0.023  0.1498E-01  0.7580E-01
      0.070  0.1847E-01  0.7752E-01
      0.163  0.1501E-01  0.7892E-01
      0.256  0.8034E-02  0.7967E-01
      0.349  0.2831E-02  0.7993E-01
      0.442  0.6562E-03  0.7999E-01
      0.535  0.1000E-03  0.8000E-01
      0.628  0.1001E-04  0.8000E-01
      0.721  0.6574E-06  0.8000E-01
      0.814  0.2829E-07  0.8000E-01
      0.907  0.7974E-09  0.8000E-01
      1.000  0.1470E-10  0.8000E-01
      1.093  0.1771E-12  0.8000E-01
      1.186  0.1394E-14  0.8000E-01
      1.280  0.7955E-17  0.8000E-01
      1.373  0.0000E+00  0.8000E-01
      1.466  0.0000E+00  0.8000E-01
      1.559  0.0000E+00  0.8000E-01
      1.652  0.0000E+00  0.8000E-01
      1.745  0.0000E+00  0.8000E-01
      1.838  0.0000E+00  0.8000E-01
      1.931  0.0000E+00  0.8000E-01
      2.024  0.0000E+00  0.8000E-01
