    6    6  300    1
  0.4500000E+04  0.3000000E-08  0.3000000E-08  0.3000000E-08  0.0000000E+00
  1.000000000000000E-004
  CAR 
 unknown system                          
     16      4     12
 
  0.2500000E+00  0.2500000E+00  0.2500000E+00  0.2500000E+00
    1      -23.888687   1.000000
    2      -19.297964   1.000000
    3      -13.882882   1.000000
    4      -11.797073   1.000000
    5      -11.796120   1.000000
    6       -8.302970   1.000000
    7       -8.302303   1.000000
    8       -7.143873   1.000000
    9       -0.762881   0.000000
   10       -0.663260   0.000000
   11       -0.662805   0.000000
   12        0.023853   0.000000
 
 -0.2500000E+00  0.2500000E+00  0.2500000E+00  0.2500000E+00
    1      -23.888687   1.000000
    2      -19.297965   1.000000
    3      -13.882876   1.000000
    4      -11.797071   1.000000
    5      -11.796128   1.000000
    6       -8.302977   1.000000
    7       -8.302299   1.000000
    8       -7.143873   1.000000
    9       -0.762881   0.000000
   10       -0.663259   0.000000
   11       -0.662803   0.000000
   12        0.023809   0.000000
 
  0.2500000E+00 -0.2500000E+00  0.2500000E+00  0.2500000E+00
    1      -23.888687   1.000000
    2      -19.297961   1.000000
    3      -13.882880   1.000000
    4      -11.797070   1.000000
    5      -11.796132   1.000000
    6       -8.302982   1.000000
    7       -8.302308   1.000000
    8       -7.143871   1.000000
    9       -0.762881   0.000000
   10       -0.663249   0.000000
   11       -0.662798   0.000000
   12        0.023876   0.000000
 
 -0.2500000E+00 -0.2500000E+00  0.2500000E+00  0.2500000E+00
    1      -23.888687   1.000000
    2      -19.297963   1.000000
    3      -13.882883   1.000000
    4      -11.797077   1.000000
    5      -11.796129   1.000000
    6       -8.302973   1.000000
    7       -8.302303   1.000000
    8       -7.143874   1.000000
    9       -0.762881   0.000000
   10       -0.663246   0.000000
   11       -0.662791   0.000000
   12        0.023460   0.000000
