 vasp.5.4.1 24Jun15 (build Jan 13 2020 12:58:22) complex                        
  
 executed on           IFC91_ompi date 2020.02.05  18:18:08
 running on   15 total cores
 each image running on    1 cores
 distrk:  each k-point on    1 cores,    1 groups
 distr:  one band on NCORES_PER_BAND=   1 cores,    1 groups


--------------------------------------------------------------------------------------------------------


 INCAR:
 POTCAR:    PAW_PBE H 15Jun2001                   
 POTCAR:    PAW_PBE C 08Apr2002                   
 POTCAR:    PAW_PBE N 08Apr2002                   
 POTCAR:    PAW_PBE H 15Jun2001                   
   VRHFIN =H: ultrasoft test                                                    
   LEXCH  = PE                                                                  
   EATOM  =    12.4884 eV,    0.9179 Ry                                         
                                                                                
   TITEL  = PAW_PBE H 15Jun2001                                                 
   LULTRA =        F    use ultrasoft PP ?                                      
   IUNSCR =        0    unscreen: 0-lin 1-nonlin 2-no                           
   RPACOR =    0.000    partial core radius                                     
   POMASS =    1.000; ZVAL   =    1.000    mass and valenz                      
   RCORE  =    1.100    outmost cutoff radius                                   
   RWIGS  =    0.700; RWIGS  =    0.370    wigner-seitz radius (au A)           
   ENMAX  =  250.000; ENMIN  =  200.000 eV                                      
   RCLOC  =    0.701    cutoff for local pot                                    
   LCOR   =        T    correct aug charges                                     
   LPAW   =        T    paw PP                                                  
   EAUG   =  400.000                                                            
   RMAX   =    1.123    core radius for proj-oper                               
   RAUG   =    1.200    factor for augmentation sphere                          
   RDEP   =    1.112    radius for radial grids                                 
   RDEPT  =    0.926    core radius for aug-charge                              
                                                                                
   Atomic configuration                                                         
    2 entries                                                                   
     n  l   j            E        occ.                                          
     1  0  0.50        -6.4927   1.0000                                         
     2  1  0.50        -3.4015   0.0000                                         
   Description                                                                  
     l       E           TYP  RCUT    TYP  RCUT                                 
     0     -6.4927494     23  1.100                                             
     0      6.8029130     23  1.100                                             
     1     -4.0817478     23  1.100                                             
  local pseudopotential read in
  atomic valenz-charges read in
  non local Contribution for L=           0  read in
    real space projection operators read in
  non local Contribution for L=           0  read in
    real space projection operators read in
  non local Contribution for L=           1  read in
    real space projection operators read in
    PAW grid and wavefunctions read in
 
   number of l-projection  operators is LMAX  =           3
   number of lm-projection operators is LMMAX =           5
 
 POTCAR:    PAW_PBE C 08Apr2002                   
   VRHFIN =C: s2p2                                                              
   LEXCH  = PE                                                                  
   EATOM  =   147.1560 eV,   10.8157 Ry                                         
                                                                                
   TITEL  = PAW_PBE C 08Apr2002                                                 
   LULTRA =        F    use ultrasoft PP ?                                      
   IUNSCR =        1    unscreen: 0-lin 1-nonlin 2-no                           
   RPACOR =    1.200    partial core radius                                     
   POMASS =   12.011; ZVAL   =    4.000    mass and valenz                      
   RCORE  =    1.500    outmost cutoff radius                                   
   RWIGS  =    1.630; RWIGS  =    0.863    wigner-seitz radius (au A)           
   ENMAX  =  400.000; ENMIN  =  300.000 eV                                      
   ICORE  =        2    local potential                                         
   LCOR   =        T    correct aug charges                                     
   LPAW   =        T    paw PP                                                  
   EAUG   =  644.873                                                            
   DEXC   =    0.000                                                            
   RMAX   =    1.529    core radius for proj-oper                               
   RAUG   =    1.300    factor for augmentation sphere                          
   RDEP   =    1.501    radius for radial grids                                 
   RDEPT  =    1.300    core radius for aug-charge                              
                                                                                
   Atomic configuration                                                         
    4 entries                                                                   
     n  l   j            E        occ.                                          
     1  0  0.50      -273.3789   2.0000                                         
     2  0  0.50       -13.7508   2.0000                                         
     2  1  0.50        -5.2854   2.0000                                         
     3  2  1.50        -5.4423   0.0000                                         
   Description                                                                  
     l       E           TYP  RCUT    TYP  RCUT                                 
     0    -13.7508458     23  1.200                                             
     0     -8.2022199     23  1.200                                             
     1     -5.2854383     23  1.500                                             
     1     34.0145650     23  1.500                                             
     2     -5.4423304      7  1.500                                             
  local pseudopotential read in
  partial core-charges read in
  partial kinetic energy density read in
  atomic valenz-charges read in
  non local Contribution for L=           0  read in
    real space projection operators read in
  non local Contribution for L=           0  read in
    real space projection operators read in
  non local Contribution for L=           1  read in
    real space projection operators read in
  non local Contribution for L=           1  read in
    real space projection operators read in
    PAW grid and wavefunctions read in
 
   number of l-projection  operators is LMAX  =           4
   number of lm-projection operators is LMMAX =           8
 
 POTCAR:    PAW_PBE N 08Apr2002                   
   VRHFIN =N: s2p3                                                              
   LEXCH  = PE                                                                  
   EATOM  =   264.5486 eV,   19.4438 Ry                                         
                                                                                
   TITEL  = PAW_PBE N 08Apr2002                                                 
   LULTRA =        F    use ultrasoft PP ?                                      
   IUNSCR =        1    unscreen: 0-lin 1-nonlin 2-no                           
   RPACOR =    1.200    partial core radius                                     
   POMASS =   14.001; ZVAL   =    5.000    mass and valenz                      
   RCORE  =    1.500    outmost cutoff radius                                   
   RWIGS  =    1.400; RWIGS  =    0.741    wigner-seitz radius (au A)           
   ENMAX  =  400.000; ENMIN  =  300.000 eV                                      
   ICORE  =        2    local potential                                         
   LCOR   =        T    correct aug charges                                     
   LPAW   =        T    paw PP                                                  
   EAUG   =  627.112                                                            
   DEXC   =    0.000                                                            
   RMAX   =    1.529    core radius for proj-oper                               
   RAUG   =    1.300    factor for augmentation sphere                          
   RDEP   =    1.514    radius for radial grids                                 
   RDEPT  =    1.338    core radius for aug-charge                              
                                                                                
   Atomic configuration                                                         
    4 entries                                                                   
     n  l   j            E        occ.                                          
     1  0  0.50      -384.7179   2.0000                                         
     2  0  0.50       -18.5828   2.0000                                         
     2  1  0.50        -7.0898   3.0000                                         
     3  2  1.50        -6.8029   0.0000                                         
   Description                                                                  
     l       E           TYP  RCUT    TYP  RCUT                                 
     0    -18.5828119     23  1.200                                             
     0    -13.5018863     23  1.200                                             
     1     -7.0897853     23  1.500                                             
     1      9.5240782     23  1.500                                             
     2     -6.8029130      7  1.500                                             
  local pseudopotential read in
  partial core-charges read in
  partial kinetic energy density read in
  atomic valenz-charges read in
  non local Contribution for L=           0  read in
    real space projection operators read in
  non local Contribution for L=           0  read in
    real space projection operators read in
  non local Contribution for L=           1  read in
    real space projection operators read in
  non local Contribution for L=           1  read in
    real space projection operators read in
    PAW grid and wavefunctions read in
 
   number of l-projection  operators is LMAX  =           4
   number of lm-projection operators is LMMAX =           8
 

 ----------------------------------------------------------------------------- 
|                                                                             |
|  ADVICE TO THIS USER RUNNING 'VASP/VAMP'   (HEAR YOUR MASTER'S VOICE ...):  |
|                                                                             |
|      You have a (more or less) 'small supercell' and for smaller cells      |
|      it is recommended  to use the reciprocal-space projection scheme!      |
|      The real space optimization is not  efficient for small cells and it   |
|      is also less accurate ...                                              |
|      Therefore set LREAL=.FALSE. in the  INCAR file                         |
|                                                                             |
 ----------------------------------------------------------------------------- 

 Optimization of the real space projectors (new method)

 maximal supplied QI-value         = 34.20
 optimisation between [QCUT,QGAM] = [  9.92, 20.18] = [ 27.55,114.04] Ry 
 Optimized for a Real-space Cutoff    1.26 Angstroem

   l    n(q)    QCUT    max X(q) W(low)/X(q) W(high)/X(q)  e(spline) 
   0      8     9.919    19.460    0.50E-03    0.23E-03    0.29E-06
   0      8     9.919    12.209    0.48E-03    0.23E-03    0.28E-06
   1      7     9.919     4.655    0.17E-03    0.75E-03    0.30E-06
 Optimization of the real space projectors (new method)

 maximal supplied QI-value         = 25.13
 optimisation between [QCUT,QGAM] = [ 10.05, 20.36] = [ 28.30,116.06] Ry 
 Optimized for a Real-space Cutoff    1.30 Angstroem

   l    n(q)    QCUT    max X(q) W(low)/X(q) W(high)/X(q)  e(spline) 
   0      8    10.053   115.676    0.49E-03    0.72E-03    0.18E-06
   0      8    10.053    87.132    0.49E-03    0.71E-03    0.18E-06
   1      7    10.053     4.429    0.32E-03    0.31E-03    0.18E-06
   1      7    10.053     2.733    0.23E-03    0.19E-03    0.20E-06
 Optimization of the real space projectors (new method)

 maximal supplied QI-value         = 25.13
 optimisation between [QCUT,QGAM] = [ 10.05, 20.36] = [ 28.30,116.06] Ry 
 Optimized for a Real-space Cutoff    1.65 Angstroem

   l    n(q)    QCUT    max X(q) W(low)/X(q) W(high)/X(q)  e(spline) 
   0     10    10.053    79.467    0.76E-04    0.72E-04    0.56E-06
   0     10    10.053    66.151    0.76E-04    0.72E-04    0.55E-06
   1     10    10.053     8.350    0.25E-03    0.92E-03    0.41E-05
   1     10    10.053     5.531    0.27E-03    0.10E-02    0.45E-05
  PAW_PBE H 15Jun2001                   :
 energy of atom  1       EATOM=  -12.4884
 kinetic energy error for atom=    0.0098 (will be added to EATOM!!)
  PAW_PBE C 08Apr2002                   :
 energy of atom  2       EATOM= -147.1560
 kinetic energy error for atom=    0.0288 (will be added to EATOM!!)
  PAW_PBE N 08Apr2002                   :
 energy of atom  3       EATOM= -264.5486
 kinetic energy error for atom=    0.0736 (will be added to EATOM!!)
 
 
 POSCAR: H3 C2 N1                                
  positions in direct lattice
  velocities in cartesian coordinates
 exchange correlation table for  LEXCH =        8
   RHO(1)=    0.500       N(1)  =     2000
   RHO(2)=  100.500       N(2)  =     4000

 VTST: version 3.2, (02/03/18)

 CHAIN: initializing optimizer
 
 OPT: Using FIRE optimizer
 OPT: FIRE, Init
 OPT: FIRE, MAXMOVE       0.20000
 OPT: FIRE, TIMESTEP      0.10000
 OPT: FIRE, FTIMEMAX      1.00000
 OPT: FIRE, FTIMEINC      1.10000
 OPT: FIRE, FTIMEDEC      0.50000
 OPT: FIRE, FALPHADEC     0.99000
 OPT: FIRE, FALPHA        0.10000
 OPT: FIRE, FNMIN         5
 
 CHAIN: Read ICHAIN            0
 CHAIN: Running the NEB
 NEB:          SPRING     -5.000000
 NEB:          LCLIMB      T
 NEB:     LTANGENTOLD      F
 NEB:           LDNEB      F
 NEB:        LDNEBORG      F
 NEB:        LNEBCELL      F
 NEB:          EFIRST      0.000000
 NEB:           ELAST      0.000000
 
 POSCAR: H3 C2 N1                                
  positions in direct lattice
  No initial velocities read in
 
 POSCAR: H3 C2 N1                                
  positions in direct lattice
  No initial velocities read in
 


--------------------------------------------------------------------------------------------------------


 ion  position               nearest neighbor table
   1  0.496  0.456  0.525-   4 1.10
   2  0.464  0.484  0.483-   4 1.10
   3  0.475  0.511  0.535-   4 1.10
   4  0.489  0.489  0.510-   3 1.10   2 1.10   1 1.10   6 1.42
   5  0.562  0.522  0.477-   6 1.18
   6  0.529  0.507  0.492-   5 1.18   4 1.42
 
  LATTYP: Found a simple cubic cell.
 ALAT       =    30.0000000000
  
  Lattice vectors:
  
 A1 = (  30.0000000000,   0.0000000000,   0.0000000000)
 A2 = (   0.0000000000,  30.0000000000,   0.0000000000)
 A3 = (   0.0000000000,   0.0000000000,  30.0000000000)


Analysis of symmetry for initial positions (statically):
=====================================================================
 Subroutine PRICEL returns:
 Original cell was already a primitive cell.
 

 Routine SETGRP: Setting up the symmetry group for a 
 simple cubic supercell.


 Subroutine GETGRP returns: Found  1 space group operations
 (whereof  1 operations were pure point group operations)
 out of a pool of 48 trial point group operations.


The static configuration has the point symmetry C_1 .


Analysis of symmetry for dynamics (positions and initial velocities):
=====================================================================
 Subroutine PRICEL returns:
 Original cell was already a primitive cell.
 

 Routine SETGRP: Setting up the symmetry group for a 
 simple cubic supercell.


 Subroutine GETGRP returns: Found  1 space group operations
 (whereof  1 operations were pure point group operations)
 out of a pool of 48 trial point group operations.


The dynamic configuration has the point symmetry C_1 .
 
 
 KPOINTS: Mo2C                                    

Automatic generation of k-mesh.
Space group operators:
 irot       det(A)        alpha          n_x          n_y          n_z        tau_x        tau_y        tau_z
    1     1.000000     0.000000     1.000000     0.000000     0.000000     0.000000     0.000000     0.000000
 
 Subroutine IBZKPT returns following result:
 ===========================================
 
 Found      4 irreducible k-points:
 
 Following reciprocal coordinates:
            Coordinates               Weight
  0.250000  0.250000  0.250000      2.000000
 -0.250000  0.250000  0.250000      2.000000
  0.250000 -0.250000  0.250000      2.000000
 -0.250000 -0.250000  0.250000      2.000000
 
 Following cartesian coordinates:
            Coordinates               Weight
  0.008333  0.008333  0.008333      2.000000
 -0.008333  0.008333  0.008333      2.000000
  0.008333 -0.008333  0.008333      2.000000
 -0.008333 -0.008333  0.008333      2.000000
 


--------------------------------------------------------------------------------------------------------




 Dimension of arrays:
   k-points           NKPTS =      4   k-points in BZ     NKDIM =      4   number of bands    NBANDS=     12
   number of dos      NEDOS =    301   number of ions     NIONS =      6
   non local maximal  LDIM  =      4   non local SUM 2l+1 LMDIM =      8
   total plane-waves  NPLWV = ******
   max r-space proj   IRMAX =   2395   max aug-charges    IRDMAX=   1738
   dimension x,y,z NGX =   150 NGY =  150 NGZ =  150
   dimension x,y,z NGXF=   300 NGYF=  300 NGZF=  300
   support grid    NGXF=   300 NGYF=  300 NGZF=  300
   ions per type =               3   2   1
 NGX,Y,Z   is equivalent  to a cutoff of   8.31,  8.31,  8.31 a.u.
 NGXF,Y,Z  is equivalent  to a cutoff of  16.62, 16.62, 16.62 a.u.


 I would recommend the setting:
   dimension x,y,z NGX =   147 NGY =  147 NGZ =  147
 SYSTEM =  unknown system                          
 POSCAR =  H3 C2 N1                                

 Startparameter for this run:
   NWRITE =      2    write-flag & timer
   PREC   = normal    normal or accurate (medium, high low for compatibility)
   ISTART =      0    job   : 0-new  1-cont  2-samecut
   ICHARG =      2    charge: 1-file 2-atom 10-const
   ISPIN  =      1    spin polarized calculation?
   LNONCOLLINEAR =      F non collinear calculations
   LSORBIT =      F    spin-orbit coupling
   INIWAV =      1    electr: 0-lowe 1-rand  2-diag
   LASPH  =      F    aspherical Exc in radial PAW
   METAGGA=      F    non-selfconsistent MetaGGA calc.

 Electronic Relaxation 1
   ENCUT  =  400.0 eV  29.40 Ry    5.42 a.u.  48.92 48.92 48.92*2*pi/ulx,y,z
   ENINI  =  400.0     initial cutoff
   ENAUG  =  644.9 eV  augmentation charge cutoff
   NELM   =    500;   NELMIN=  6; NELMDL= -5     # of ELM steps 
   EDIFF  = 0.1E-03   stopping-criterion for ELM
   LREAL  =      T    real-space projection
   NLSPLINE    = F    spline interpolate recip. space projectors
   LCOMPAT=      F    compatible to vasp.4.4
   GGA_COMPAT  = T    GGA compatible to vasp.4.4-vasp.4.6
   LMAXPAW     = -100 max onsite density
   LMAXMIX     =    2 max onsite mixed and CHGCAR
   VOSKOWN=      0    Vosko Wilk Nusair interpolation
   ROPT   =   -0.00050  -0.00050  -0.00050
 Ionic relaxation
   EDIFFG = -.1E+00   stopping-criterion for IOM
   NSW    =    300    number of steps for IOM
   NBLOCK =      1;   KBLOCK =    300    inner block; outer block 
   IBRION =      3    ionic relax: 0-MD 1-quasi-New 2-CG
   NFREE  =      0    steps in history (QN), initial steepest desc. (CG)
   ISIF   =      2    stress and relaxation
   IWAVPR =     11    prediction:  0-non 1-charg 2-wave 3-comb
   ISYM   =      2    0-nonsym 1-usesym 2-fastsym
   LCORR  =      T    Harris-Foulkes like correction to forces

   POTIM  = 0.0000    time-step for ionic-motion
   TEIN   =    0.0    initial temperature
   TEBEG  =    0.0;   TEEND  =   0.0 temperature during run
   SMASS  =   2.00    Nose mass-parameter (am)
   estimated Nose-frequenzy (Omega)   =  0.12E+10 period in steps =  0.00 mass=   0.137E-25a.u.
   SCALEE = 1.0000    scale energy and forces
   NPACO  =    256;   APACO  = 16.0  distance and # of slots for P.C.
   PSTRESS=    0.0 pullay stress

  Mass of Ions in am
   POMASS =   1.00 12.01 14.00
  Ionic Valenz
   ZVAL   =   1.00  4.00  5.00
  Atomic Wigner-Seitz radii
   RWIGS  =  -1.00 -1.00 -1.00
  virtual crystal weights 
   VCA    =   1.00  1.00  1.00
   NELECT =      16.0000    total number of electrons
   NUPDOWN=      -1.0000    fix difference up-down

 DOS related values:
   EMIN   =  10.00;   EMAX   =-10.00  energy-range for DOS
   EFERMI =   0.00
   ISMEAR =     0;   SIGMA  =   0.20  broadening in eV -4-tet -1-fermi 0-gaus

 Electronic relaxation 2 (details)
   IALGO  =     38    algorithm
   LDIAG  =      T    sub-space diagonalisation (order eigenvalues)
   LSUBROT=      F    optimize rotation matrix (better conditioning)
   TURBO    =      0    0=normal 1=particle mesh
   IRESTART =      0    0=no restart 2=restart with 2 vectors
   NREBOOT  =      0    no. of reboots
   NMIN     =      0    reboot dimension
   EREF     =   0.00    reference energy to select bands
   IMIX   =      4    mixing-type and parameters
     AMIX     =   0.40;   BMIX     =  1.00
     AMIX_MAG =   1.60;   BMIX_MAG =  1.00
     AMIN     =   0.10
     WC   =   100.;   INIMIX=   1;  MIXPRE=   1;  MAXMIX= -45

 Intra band minimization:
   WEIMIN = 0.0010     energy-eigenvalue tresh-hold
   EBREAK =  0.21E-05  absolut break condition
   DEPER  =   0.30     relativ break condition  

   TIME   =   0.40     timestep for ELM

  volume/ion in A,a.u.               =    4500.00     30367.50
  Fermi-wavevector in a.u.,A,eV,Ry     =   0.137508  0.259852  0.257264  0.018908
  Thomas-Fermi vector in A             =   0.790710
 
 Write flags
   LWAVE  =      F    write WAVECAR
   LCHARG =      F    write CHGCAR
   LVTOT  =      F    write LOCPOT, total local potential
   LVHAR  =      F    write LOCPOT, Hartree potential only
   LELF   =      F    write electronic localiz. function (ELF)
   LORBIT =      0    0 simple, 1 ext, 2 COOP (PROOUT)


 Dipole corrections
   LMONO  =      F    monopole corrections only (constant potential shift)
   LDIPOL =      F    correct potential (dipole corrections)
   IDIPOL =      0    1-x, 2-y, 3-z, 4-all directions 
   EPSILON=  1.0000000 bulk dielectric constant

 Exchange correlation treatment:
   GGA     =    PE    GGA type
   LEXCH   =     8    internal setting for exchange type
   VOSKOWN=      0    Vosko Wilk Nusair interpolation
   LHFCALC =     F    Hartree Fock is set to
   LHFONE  =     F    Hartree Fock one center treatment
   AEXX    =    0.0000 exact exchange contribution

 Linear response parameters
   LEPSILON=     F    determine dielectric tensor
   LRPA    =     F    only Hartree local field effects (RPA)
   LNABLA  =     F    use nabla operator in PAW spheres
   LVEL    =     F    velocity operator in full k-point grid
   LINTERFAST=   F  fast interpolation
   KINTER  =     0    interpolate to denser k-point grid
   CSHIFT  =0.1000    complex shift for real part using Kramers Kronig
   OMEGAMAX=  -1.0    maximum frequency
   DEG_THRESHOLD= 0.2000000E-02 threshold for treating states as degnerate
   RTIME   =    0.100 relaxation time in fs

 Orbital magnetization related:
   ORBITALMAG=     F  switch on orbital magnetization
   LCHIMAG   =     F  perturbation theory with respect to B field
   DQ        =  0.001000  dq finite difference perturbation B field



--------------------------------------------------------------------------------------------------------


 quickmin algorithm: (dynamic with friction)
 charge density and potential will be updated during run
 non-spin polarized calculation
 Variant of blocked Davidson
 Davidson routine will perform the subspace rotation
 perform sub-space diagonalisation
    after iterative eigenvector-optimisation
 modified Broyden-mixing scheme, WC =      100.0
 initial mixing is a Kerker type mixing with AMIX =  0.4000 and BMIX =      1.0000
 Hartree-type preconditioning will be used
 using additional bands            4
 real space projection scheme for non local part
 use partial core corrections
 calculate Harris-corrections to forces 
   (improved forces if not selfconsistent)
 use gradient corrections 
 use of overlap-Matrix (Vanderbilt PP)
 Gauss-broadening in eV      SIGMA  =   0.20


--------------------------------------------------------------------------------------------------------


  energy-cutoff  :      400.00
  volume of cell :    27000.00
      direct lattice vectors                 reciprocal lattice vectors
    30.000000000  0.000000000  0.000000000     0.033333333  0.000000000  0.000000000
     0.000000000 30.000000000  0.000000000     0.000000000  0.033333333  0.000000000
     0.000000000  0.000000000 30.000000000     0.000000000  0.000000000  0.033333333

  length of vectors
    30.000000000 30.000000000 30.000000000     0.033333333  0.033333333  0.033333333


 
 k-points in units of 2pi/SCALE and weight: Mo2C                                    
   0.00833333  0.00833333  0.00833333       0.250
  -0.00833333  0.00833333  0.00833333       0.250
   0.00833333 -0.00833333  0.00833333       0.250
  -0.00833333 -0.00833333  0.00833333       0.250
 
 k-points in reciprocal lattice and weights: Mo2C                                    
   0.25000000  0.25000000  0.25000000       0.250
  -0.25000000  0.25000000  0.25000000       0.250
   0.25000000 -0.25000000  0.25000000       0.250
  -0.25000000 -0.25000000  0.25000000       0.250
 
 position of ions in fractional coordinates (direct lattice) 
   0.49569198  0.45604480  0.52514042
   0.46415010  0.48443253  0.48323157
   0.47538394  0.51118480  0.53533281
   0.48898223  0.48865658  0.50984028
   0.56209068  0.52158694  0.47716128
   0.52885533  0.50663091  0.49202080
 
 position of ions in cartesian coordinates  (Angst):
  14.87075948 13.68134392 15.75421255
  13.92450292 14.53297585 14.49694701
  14.26151815 15.33554408 16.05998436
  14.66946695 14.65969744 15.29520832
  16.86272033 15.64760830 14.31483853
  15.86565993 15.19892733 14.76062406
 


--------------------------------------------------------------------------------------------------------


 k-point  1 :   0.2500 0.2500 0.2500  plane waves:  490454
 k-point  2 :  -0.2500 0.2500 0.2500  plane waves:  490454
 k-point  3 :   0.2500-0.2500 0.2500  plane waves:  490454
 k-point  4 :  -0.2500-0.2500 0.2500  plane waves:  490454

 maximum and minimum number of plane-waves per node :    490454   490454

 maximum number of plane-waves:    490454
 maximum index in each direction: 
   IXMAX=   49   IYMAX=   49   IZMAX=   48
   IXMIN=  -49   IYMIN=  -49   IZMIN=  -49

 WARNING: aliasing errors must be expected set NGX to 198 to avoid them
 WARNING: aliasing errors must be expected set NGY to 198 to avoid them
 WARNING: aliasing errors must be expected set NGZ to 196 to avoid them
 aliasing errors are usually negligible using standard VASP settings
 and one can safely disregard these warnings

 serial   3D FFT for wavefunctions
 parallel 3D FFT for charge:
    minimum data exchange during FFTs selected (reduces bandwidth)


 total amount of memory used by VASP on root node  3203887. kBytes
========================================================================

   base      :      30000. kBytes
   nonlr-proj:        691. kBytes
   fftplans  :     924480. kBytes
   grid      :    1872000. kBytes
   one-center:         18. kBytes
   wavefun   :     376698. kBytes
 
     INWAV:  cpu time    0.0010: real time    0.0003
 Broyden mixing: mesh for mixing (old mesh)
   NGX = 97   NGY = 97   NGZ = 97
  (NGX  =300   NGY  =300   NGZ  =300)
  gives a total of 912673 points

 initial charge density was supplied:
 charge density of overlapping atoms calculated
 number of electron      16.0000000 magnetization 
 keeping initial charge density in first step


--------------------------------------------------------------------------------------------------------


 Maximum index for non-local projection operator         2275
 Maximum index for augmentation-charges         1500 (set IRDMAX)


--------------------------------------------------------------------------------------------------------


 First call to EWALD:  gamma=   0.059
 Maximum number of real-space cells 3x 3x 3
 Maximum number of reciprocal cells 3x 3x 3

 FEWALD executed in parallel
    FEWALD:  cpu time    0.0030: real time    0.0024


----------------------------------------- Iteration    1(   1)  ---------------------------------------


    POTLOK:  cpu time   30.4814: real time   30.5517
    SETDIJ:  cpu time    0.0060: real time    0.0066
     EDDAV:  cpu time  141.0396: real time  141.3818
       DOS:  cpu time    0.0000: real time    0.0003
    --------------------------------------------
      LOOP:  cpu time  171.5309: real time  171.9465

 eigenvalue-minimisations  :   160
 total energy-change (2. order) : 0.1121933E+03  (-0.2153670E+03)
 number of electron      16.0000000 magnetization 
 augmentation part       16.0000000 magnetization 

 Free energy of the ion-electron system (eV)
  ---------------------------------------------------
  alpha Z        PSCENC =         0.04144063
  Ewald energy   TEWEN  =       702.62410954
  -Hartree energ DENC   =     -1116.99265866
  -exchange      EXHF   =         0.00000000
  -V(xc)+E(xc)   XCENC  =        51.41635419
  PAW double counting   =       428.37890668     -430.73533574
  entropy T*S    EENTRO =        -0.19092021
  eigenvalues    EBANDS =      -118.51397656
  atomic energy  EATOM  =       596.16534815
  Solvation  Ediel_sol  =         0.00000000
  ---------------------------------------------------
  free energy    TOTEN  =       112.19326801 eV

  energy without entropy =      112.38418822  energy(sigma->0) =      112.28872812


--------------------------------------------------------------------------------------------------------




----------------------------------------- Iteration    1(   2)  ---------------------------------------


     EDDAV:  cpu time  163.8491: real time  164.3470
       DOS:  cpu time    0.0000: real time    0.0002
    --------------------------------------------
      LOOP:  cpu time  163.8501: real time  164.3513

 eigenvalue-minimisations  :   192
 total energy-change (2. order) :-0.1140062E+03  (-0.1118251E+03)
 number of electron      16.0000000 magnetization 
 augmentation part       16.0000000 magnetization 

 Free energy of the ion-electron system (eV)
  ---------------------------------------------------
  alpha Z        PSCENC =         0.04144063
  Ewald energy   TEWEN  =       702.62410954
  -Hartree energ DENC   =     -1116.99265866
  -exchange      EXHF   =         0.00000000
  -V(xc)+E(xc)   XCENC  =        51.41635419
  PAW double counting   =       428.37890668     -430.73533574
  entropy T*S    EENTRO =        -0.00000144
  eigenvalues    EBANDS =      -232.71114063
  atomic energy  EATOM  =       596.16534815
  Solvation  Ediel_sol  =         0.00000000
  ---------------------------------------------------
  free energy    TOTEN  =        -1.81297729 eV

  energy without entropy =       -1.81297584  energy(sigma->0) =       -1.81297656


--------------------------------------------------------------------------------------------------------




----------------------------------------- Iteration    1(   3)  ---------------------------------------


     EDDAV:  cpu time  127.3716: real time  127.6800
       DOS:  cpu time    0.0000: real time    0.0002
    --------------------------------------------
      LOOP:  cpu time  127.3726: real time  127.6849

 eigenvalue-minimisations  :   136
 total energy-change (2. order) :-0.3239967E+02  (-0.3229386E+02)
 number of electron      16.0000000 magnetization 
 augmentation part       16.0000000 magnetization 

 Free energy of the ion-electron system (eV)
  ---------------------------------------------------
  alpha Z        PSCENC =         0.04144063
  Ewald energy   TEWEN  =       702.62410954
  -Hartree energ DENC   =     -1116.99265866
  -exchange      EXHF   =         0.00000000
  -V(xc)+E(xc)   XCENC  =        51.41635419
  PAW double counting   =       428.37890668     -430.73533574
  entropy T*S    EENTRO =         0.00000000
  eigenvalues    EBANDS =      -265.11081418
  atomic energy  EATOM  =       596.16534815
  Solvation  Ediel_sol  =         0.00000000
  ---------------------------------------------------
  free energy    TOTEN  =       -34.21264940 eV

  energy without entropy =      -34.21264940  energy(sigma->0) =      -34.21264940


--------------------------------------------------------------------------------------------------------




----------------------------------------- Iteration    1(   4)  ---------------------------------------


     EDDAV:  cpu time  117.0852: real time  117.3672
       DOS:  cpu time    0.0000: real time    0.0002
    --------------------------------------------
      LOOP:  cpu time  117.0872: real time  117.3722

 eigenvalue-minimisations  :   128
 total energy-change (2. order) :-0.4706828E+01  (-0.4655621E+01)
 number of electron      16.0000000 magnetization 
 augmentation part       16.0000000 magnetization 

 Free energy of the ion-electron system (eV)
  ---------------------------------------------------
  alpha Z        PSCENC =         0.04144063
  Ewald energy   TEWEN  =       702.62410954
  -Hartree energ DENC   =     -1116.99265866
  -exchange      EXHF   =         0.00000000
  -V(xc)+E(xc)   XCENC  =        51.41635419
  PAW double counting   =       428.37890668     -430.73533574
  entropy T*S    EENTRO =         0.00000000
  eigenvalues    EBANDS =      -269.81764241
  atomic energy  EATOM  =       596.16534815
  Solvation  Ediel_sol  =         0.00000000
  ---------------------------------------------------
  free energy    TOTEN  =       -38.91947762 eV

  energy without entropy =      -38.91947762  energy(sigma->0) =      -38.91947762


--------------------------------------------------------------------------------------------------------




----------------------------------------- Iteration    1(   5)  ---------------------------------------


     EDDAV:  cpu time  103.8162: real time  104.0657
       DOS:  cpu time    0.0000: real time    0.0002
    CHARGE:  cpu time    9.6105: real time    9.6348
    MIXING:  cpu time    0.7569: real time    0.7574
    --------------------------------------------
      LOOP:  cpu time  114.1856: real time  114.4629

 eigenvalue-minimisations  :   112
 total energy-change (2. order) :-0.1723312E+00  (-0.1700759E+00)
 number of electron      15.9999992 magnetization 
 augmentation part        0.5191323 magnetization 

 Broyden mixing:
  rms(total) = 0.10361E+01    rms(broyden)= 0.10356E+01
  rms(prec ) = 0.10725E+01
  weight for this iteration     100.00

 Free energy of the ion-electron system (eV)
  ---------------------------------------------------
  alpha Z        PSCENC =         0.04144063
  Ewald energy   TEWEN  =       702.62410954
  -Hartree energ DENC   =     -1116.99265866
  -exchange      EXHF   =         0.00000000
  -V(xc)+E(xc)   XCENC  =        51.41635419
  PAW double counting   =       428.37890668     -430.73533574
  entropy T*S    EENTRO =         0.00000000
  eigenvalues    EBANDS =      -269.98997362
  atomic energy  EATOM  =       596.16534815
  Solvation  Ediel_sol  =         0.00000000
  ---------------------------------------------------
  free energy    TOTEN  =       -39.09180884 eV

  energy without entropy =      -39.09180884  energy(sigma->0) =      -39.09180884


--------------------------------------------------------------------------------------------------------




----------------------------------------- Iteration    1(   6)  ---------------------------------------


    POTLOK:  cpu time   29.8275: real time   29.8989
    SETDIJ:  cpu time    0.0070: real time    0.0067
     EDDAV:  cpu time  109.6943: real time  109.9514
       DOS:  cpu time    0.0000: real time    0.0002
    CHARGE:  cpu time    9.4596: real time    9.4815
    MIXING:  cpu time    0.9299: real time    0.9318
    --------------------------------------------
      LOOP:  cpu time  149.9202: real time  150.2750

 eigenvalue-minimisations  :   124
 total energy-change (2. order) : 0.2680907E+01  (-0.4395637E+00)
 number of electron      15.9999991 magnetization 
 augmentation part        0.4737953 magnetization 

 Broyden mixing:
  rms(total) = 0.56201E+00    rms(broyden)= 0.56194E+00
  rms(prec ) = 0.57754E+00
  weight for this iteration     100.00

 eigenvalues of (default mixing * dielectric matrix)
  average eigenvalue GAMMA=   1.6211
  1.6211

 Free energy of the ion-electron system (eV)
  ---------------------------------------------------
  alpha Z        PSCENC =         0.04144063
  Ewald energy   TEWEN  =       702.62410954
  -Hartree energ DENC   =     -1146.04352469
  -exchange      EXHF   =         0.00000000
  -V(xc)+E(xc)   XCENC  =        53.01282415
  PAW double counting   =       719.44335483     -722.13451111
  entropy T*S    EENTRO =         0.00000000
  eigenvalues    EBANDS =      -239.51994377
  atomic energy  EATOM  =       596.16534815
  Solvation  Ediel_sol  =         0.00000000
  ---------------------------------------------------
  free energy    TOTEN  =       -36.41090228 eV

  energy without entropy =      -36.41090228  energy(sigma->0) =      -36.41090228


--------------------------------------------------------------------------------------------------------




----------------------------------------- Iteration    1(   7)  ---------------------------------------


    POTLOK:  cpu time   30.9183: real time   30.9922
    SETDIJ:  cpu time    0.0080: real time    0.0073
     EDDAV:  cpu time  119.8478: real time  120.1363
       DOS:  cpu time    0.0000: real time    0.0002
    CHARGE:  cpu time    9.2196: real time    9.2432
    MIXING:  cpu time    0.9259: real time    0.9284
    --------------------------------------------
      LOOP:  cpu time  160.9215: real time  161.3217

 eigenvalue-minimisations  :   124
 total energy-change (2. order) : 0.7038899E+00  (-0.1858761E+00)
 number of electron      15.9999991 magnetization 
 augmentation part        0.4573867 magnetization 

 Broyden mixing:
  rms(total) = 0.22185E+00    rms(broyden)= 0.22179E+00
  rms(prec ) = 0.22690E+00
  weight for this iteration     100.00

 eigenvalues of (default mixing * dielectric matrix)
  average eigenvalue GAMMA=   1.5804
  1.1017  2.0592

 Free energy of the ion-electron system (eV)
  ---------------------------------------------------
  alpha Z        PSCENC =         0.04144063
  Ewald energy   TEWEN  =       702.62410954
  -Hartree energ DENC   =     -1166.17309129
  -exchange      EXHF   =         0.00000000
  -V(xc)+E(xc)   XCENC  =        54.29582467
  PAW double counting   =      1100.11924490    -1103.00315992
  entropy T*S    EENTRO =         0.00000000
  eigenvalues    EBANDS =      -219.77672902
  atomic energy  EATOM  =       596.16534815
  Solvation  Ediel_sol  =         0.00000000
  ---------------------------------------------------
  free energy    TOTEN  =       -35.70701234 eV

  energy without entropy =      -35.70701234  energy(sigma->0) =      -35.70701234


--------------------------------------------------------------------------------------------------------




----------------------------------------- Iteration    1(   8)  ---------------------------------------


    POTLOK:  cpu time   30.6393: real time   30.7120
    SETDIJ:  cpu time    0.0060: real time    0.0066
     EDDAV:  cpu time  123.5112: real time  123.8091
       DOS:  cpu time    0.0000: real time    0.0002
    CHARGE:  cpu time    9.3216: real time    9.3448
    MIXING:  cpu time    0.9908: real time    0.9932
    --------------------------------------------
      LOOP:  cpu time  164.4730: real time  164.8711

 eigenvalue-minimisations  :   128
 total energy-change (2. order) : 0.6891658E-01  (-0.1320549E-01)
 number of electron      15.9999991 magnetization 
 augmentation part        0.4491565 magnetization 

 Broyden mixing:
  rms(total) = 0.86980E-01    rms(broyden)= 0.86959E-01
  rms(prec ) = 0.91256E-01
  weight for this iteration     100.00

 eigenvalues of (default mixing * dielectric matrix)
  average eigenvalue GAMMA=   1.5949
  2.3204  0.8289  1.6355

 Free energy of the ion-electron system (eV)
  ---------------------------------------------------
  alpha Z        PSCENC =         0.04144063
  Ewald energy   TEWEN  =       702.62410954
  -Hartree energ DENC   =     -1172.29885724
  -exchange      EXHF   =         0.00000000
  -V(xc)+E(xc)   XCENC  =        54.69610490
  PAW double counting   =      1273.25973621    -1276.16162707
  entropy T*S    EENTRO =         0.00000000
  eigenvalues    EBANDS =      -213.96435087
  atomic energy  EATOM  =       596.16534815
  Solvation  Ediel_sol  =         0.00000000
  ---------------------------------------------------
  free energy    TOTEN  =       -35.63809576 eV

  energy without entropy =      -35.63809576  energy(sigma->0) =      -35.63809576


--------------------------------------------------------------------------------------------------------




----------------------------------------- Iteration    1(   9)  ---------------------------------------


    POTLOK:  cpu time   29.6965: real time   29.7652
    SETDIJ:  cpu time    0.0060: real time    0.0064
     EDDAV:  cpu time  120.1277: real time  120.4196
       DOS:  cpu time    0.0000: real time    0.0002
    CHARGE:  cpu time    8.8887: real time    8.9100
    MIXING:  cpu time    1.2638: real time    1.2673
    --------------------------------------------
      LOOP:  cpu time  159.9847: real time  160.3736

 eigenvalue-minimisations  :   128
 total energy-change (2. order) : 0.1830913E-01  (-0.2077272E-02)
 number of electron      15.9999991 magnetization 
 augmentation part        0.4497902 magnetization 

 Broyden mixing:
  rms(total) = 0.21327E-01    rms(broyden)= 0.21318E-01
  rms(prec ) = 0.27591E-01
  weight for this iteration     100.00

 eigenvalues of (default mixing * dielectric matrix)
  average eigenvalue GAMMA=   1.5520
  2.0155  2.0155  0.8487  1.3282

 Free energy of the ion-electron system (eV)
  ---------------------------------------------------
  alpha Z        PSCENC =         0.04144063
  Ewald energy   TEWEN  =       702.62410954
  -Hartree energ DENC   =     -1173.54559771
  -exchange      EXHF   =         0.00000000
  -V(xc)+E(xc)   XCENC  =        54.78153862
  PAW double counting   =      1338.66656983    -1341.54143505
  entropy T*S    EENTRO =         0.00000000
  eigenvalues    EBANDS =      -212.81176064
  atomic energy  EATOM  =       596.16534815
  Solvation  Ediel_sol  =         0.00000000
  ---------------------------------------------------
  free energy    TOTEN  =       -35.61978663 eV

  energy without entropy =      -35.61978663  energy(sigma->0) =      -35.61978663


--------------------------------------------------------------------------------------------------------




----------------------------------------- Iteration    1(  10)  ---------------------------------------


    POTLOK:  cpu time   30.5194: real time   30.5943
    SETDIJ:  cpu time    0.0070: real time    0.0071
     EDDAV:  cpu time  119.5788: real time  119.8717
       DOS:  cpu time    0.0000: real time    0.0002
    CHARGE:  cpu time    9.0596: real time    9.0825
    MIXING:  cpu time    1.0768: real time    1.0783
    --------------------------------------------
      LOOP:  cpu time  160.2436: real time  160.6387

 eigenvalue-minimisations  :   124
 total energy-change (2. order) : 0.8823585E-04  (-0.4266670E-03)
 number of electron      15.9999991 magnetization 
 augmentation part        0.4505642 magnetization 

 Broyden mixing:
  rms(total) = 0.12942E-01    rms(broyden)= 0.12936E-01
  rms(prec ) = 0.18617E-01
  weight for this iteration     100.00

 eigenvalues of (default mixing * dielectric matrix)
  average eigenvalue GAMMA=   1.5143
  2.1921  2.1921  0.8883  0.8883  1.4107

 Free energy of the ion-electron system (eV)
  ---------------------------------------------------
  alpha Z        PSCENC =         0.04144063
  Ewald energy   TEWEN  =       702.62410954
  -Hartree energ DENC   =     -1174.56429273
  -exchange      EXHF   =         0.00000000
  -V(xc)+E(xc)   XCENC  =        54.80569284
  PAW double counting   =      1333.21184779    -1336.08237099
  entropy T*S    EENTRO =         0.00000000
  eigenvalues    EBANDS =      -211.82147362
  atomic energy  EATOM  =       596.16534815
  Solvation  Ediel_sol  =         0.00000000
  ---------------------------------------------------
  free energy    TOTEN  =       -35.61969840 eV

  energy without entropy =      -35.61969840  energy(sigma->0) =      -35.61969840


--------------------------------------------------------------------------------------------------------




----------------------------------------- Iteration    1(  11)  ---------------------------------------


    POTLOK:  cpu time   28.5417: real time   28.6110
    SETDIJ:  cpu time    0.0070: real time    0.0067
     EDDAV:  cpu time  118.5760: real time  118.8607
       DOS:  cpu time    0.0000: real time    0.0002
    CHARGE:  cpu time    9.3046: real time    9.3278
    MIXING:  cpu time    1.3848: real time    1.3879
    --------------------------------------------
      LOOP:  cpu time  157.8150: real time  158.2005

 eigenvalue-minimisations  :   124
 total energy-change (2. order) :-0.1695016E-02  (-0.1694557E-03)
 number of electron      15.9999991 magnetization 
 augmentation part        0.4500588 magnetization 

 Broyden mixing:
  rms(total) = 0.80224E-02    rms(broyden)= 0.80215E-02
  rms(prec ) = 0.12915E-01
  weight for this iteration     100.00

 eigenvalues of (default mixing * dielectric matrix)
  average eigenvalue GAMMA=   1.6594
  2.6410  2.6410  1.4505  1.4505  0.8866  0.8866

 Free energy of the ion-electron system (eV)
  ---------------------------------------------------
  alpha Z        PSCENC =         0.04144063
  Ewald energy   TEWEN  =       702.62410954
  -Hartree energ DENC   =     -1175.58767901
  -exchange      EXHF   =         0.00000000
  -V(xc)+E(xc)   XCENC  =        54.83722740
  PAW double counting   =      1332.84935394    -1335.71840465
  entropy T*S    EENTRO =         0.00000000
  eigenvalues    EBANDS =      -210.83278941
  atomic energy  EATOM  =       596.16534815
  Solvation  Ediel_sol  =         0.00000000
  ---------------------------------------------------
  free energy    TOTEN  =       -35.62139341 eV

  energy without entropy =      -35.62139341  energy(sigma->0) =      -35.62139341


--------------------------------------------------------------------------------------------------------




----------------------------------------- Iteration    1(  12)  ---------------------------------------


    POTLOK:  cpu time   29.0766: real time   29.1480
    SETDIJ:  cpu time    0.0070: real time    0.0064
     EDDAV:  cpu time  112.6059: real time  112.8783
       DOS:  cpu time    0.0000: real time    0.0002
    CHARGE:  cpu time    9.4166: real time    9.4404
    MIXING:  cpu time    1.6777: real time    1.6814
    --------------------------------------------
      LOOP:  cpu time  152.7868: real time  153.1594

 eigenvalue-minimisations  :   120
 total energy-change (2. order) :-0.5667495E-02  (-0.2974924E-03)
 number of electron      15.9999991 magnetization 
 augmentation part        0.4497844 magnetization 

 Broyden mixing:
  rms(total) = 0.45312E-02    rms(broyden)= 0.45279E-02
  rms(prec ) = 0.73350E-02
  weight for this iteration     100.00

 eigenvalues of (default mixing * dielectric matrix)
  average eigenvalue GAMMA=   1.7951
  3.8873  2.2302  1.9282  1.5671  0.9127  1.0201  1.0201

 Free energy of the ion-electron system (eV)
  ---------------------------------------------------
  alpha Z        PSCENC =         0.04144063
  Ewald energy   TEWEN  =       702.62410954
  -Hartree energ DENC   =     -1176.80302276
  -exchange      EXHF   =         0.00000000
  -V(xc)+E(xc)   XCENC  =        54.86578580
  PAW double counting   =      1329.34485902    -1332.21155284
  entropy T*S    EENTRO =         0.00000000
  eigenvalues    EBANDS =      -209.65402843
  atomic energy  EATOM  =       596.16534815
  Solvation  Ediel_sol  =         0.00000000
  ---------------------------------------------------
  free energy    TOTEN  =       -35.62706091 eV

  energy without entropy =      -35.62706091  energy(sigma->0) =      -35.62706091


--------------------------------------------------------------------------------------------------------




----------------------------------------- Iteration    1(  13)  ---------------------------------------


    POTLOK:  cpu time   31.2702: real time   31.3446
    SETDIJ:  cpu time    0.0070: real time    0.0067
     EDDAV:  cpu time  117.3862: real time  117.7018
       DOS:  cpu time    0.0000: real time    0.0002
    CHARGE:  cpu time    9.4146: real time    9.4376
    MIXING:  cpu time    1.7627: real time    1.7668
    --------------------------------------------
      LOOP:  cpu time  159.8427: real time  160.2634

 eigenvalue-minimisations  :   128
 total energy-change (2. order) :-0.6055331E-02  (-0.1661733E-03)
 number of electron      15.9999991 magnetization 
 augmentation part        0.4496027 magnetization 

 Broyden mixing:
  rms(total) = 0.28554E-02    rms(broyden)= 0.28537E-02
  rms(prec ) = 0.43482E-02
  weight for this iteration     100.00

 eigenvalues of (default mixing * dielectric matrix)
  average eigenvalue GAMMA=   1.8874
  4.9155  2.3981  1.7360  1.7360  1.4844  0.9080  0.9080  1.0130

 Free energy of the ion-electron system (eV)
  ---------------------------------------------------
  alpha Z        PSCENC =         0.04144063
  Ewald energy   TEWEN  =       702.62410954
  -Hartree energ DENC   =     -1177.41614935
  -exchange      EXHF   =         0.00000000
  -V(xc)+E(xc)   XCENC  =        54.87333681
  PAW double counting   =      1328.65481468    -1331.52200346
  entropy T*S    EENTRO =         0.00000000
  eigenvalues    EBANDS =      -209.05401324
  atomic energy  EATOM  =       596.16534815
  Solvation  Ediel_sol  =         0.00000000
  ---------------------------------------------------
  free energy    TOTEN  =       -35.63311624 eV

  energy without entropy =      -35.63311624  energy(sigma->0) =      -35.63311624


--------------------------------------------------------------------------------------------------------




----------------------------------------- Iteration    1(  14)  ---------------------------------------


    POTLOK:  cpu time   31.7362: real time   31.8124
    SETDIJ:  cpu time    0.0060: real time    0.0066
     EDDAV:  cpu time  116.6793: real time  116.9589
       DOS:  cpu time    0.0000: real time    0.0002
    CHARGE:  cpu time    9.2666: real time    9.2889
    MIXING:  cpu time    1.8197: real time    1.8236
    --------------------------------------------
      LOOP:  cpu time  159.5107: real time  159.8956

 eigenvalue-minimisations  :   128
 total energy-change (2. order) :-0.3920727E-02  (-0.4694854E-04)
 number of electron      15.9999991 magnetization 
 augmentation part        0.4496290 magnetization 

 Broyden mixing:
  rms(total) = 0.18483E-02    rms(broyden)= 0.18479E-02
  rms(prec ) = 0.26970E-02
  weight for this iteration     100.00

 eigenvalues of (default mixing * dielectric matrix)
  average eigenvalue GAMMA=   1.9791
  5.1401  2.8022  2.4183  1.9124  1.5512  1.1108  1.1108  0.8831  0.8831

 Free energy of the ion-electron system (eV)
  ---------------------------------------------------
  alpha Z        PSCENC =         0.04144063
  Ewald energy   TEWEN  =       702.62410954
  -Hartree energ DENC   =     -1177.59382658
  -exchange      EXHF   =         0.00000000
  -V(xc)+E(xc)   XCENC  =        54.86718668
  PAW double counting   =      1327.01073309    -1329.87781210
  entropy T*S    EENTRO =         0.00000000
  eigenvalues    EBANDS =      -208.87421638
  atomic energy  EATOM  =       596.16534815
  Solvation  Ediel_sol  =         0.00000000
  ---------------------------------------------------
  free energy    TOTEN  =       -35.63703697 eV

  energy without entropy =      -35.63703697  energy(sigma->0) =      -35.63703697


--------------------------------------------------------------------------------------------------------




----------------------------------------- Iteration    1(  15)  ---------------------------------------


    POTLOK:  cpu time   31.1123: real time   31.1870
    SETDIJ:  cpu time    0.0060: real time    0.0069
     EDDAV:  cpu time  118.7579: real time  119.0429
       DOS:  cpu time    0.0000: real time    0.0002
    CHARGE:  cpu time    9.3006: real time    9.3232
    MIXING:  cpu time    1.9007: real time    1.9048
    --------------------------------------------
      LOOP:  cpu time  161.0795: real time  161.4697

 eigenvalue-minimisations  :   128
 total energy-change (2. order) :-0.3321575E-02  (-0.3608051E-04)
 number of electron      15.9999991 magnetization 
 augmentation part        0.4496778 magnetization 

 Broyden mixing:
  rms(total) = 0.11945E-02    rms(broyden)= 0.11943E-02
  rms(prec ) = 0.16060E-02
  weight for this iteration     100.00

 eigenvalues of (default mixing * dielectric matrix)
  average eigenvalue GAMMA=   2.0875
  6.4789  3.4876  2.3605  1.6303  1.6303  1.5375  1.0341  0.9189  0.9189  0.8784

 Free energy of the ion-electron system (eV)
  ---------------------------------------------------
  alpha Z        PSCENC =         0.04144063
  Ewald energy   TEWEN  =       702.62410954
  -Hartree energ DENC   =     -1177.61790788
  -exchange      EXHF   =         0.00000000
  -V(xc)+E(xc)   XCENC  =        54.86085636
  PAW double counting   =      1327.85738087    -1330.72466787
  entropy T*S    EENTRO =         0.00000000
  eigenvalues    EBANDS =      -208.84691835
  atomic energy  EATOM  =       596.16534815
  Solvation  Ediel_sol  =         0.00000000
  ---------------------------------------------------
  free energy    TOTEN  =       -35.64035854 eV

  energy without entropy =      -35.64035854  energy(sigma->0) =      -35.64035854


--------------------------------------------------------------------------------------------------------




----------------------------------------- Iteration    1(  16)  ---------------------------------------


    POTLOK:  cpu time   31.0413: real time   31.1154
    SETDIJ:  cpu time    0.0070: real time    0.0069
     EDDAV:  cpu time  115.1355: real time  115.4066
       DOS:  cpu time    0.0000: real time    0.0002
    CHARGE:  cpu time    9.1186: real time    9.1425
    MIXING:  cpu time    2.1217: real time    2.1273
    --------------------------------------------
      LOOP:  cpu time  157.4271: real time  157.8035

 eigenvalue-minimisations  :   128
 total energy-change (2. order) :-0.1219976E-02  (-0.1079097E-04)
 number of electron      15.9999991 magnetization 
 augmentation part        0.4496486 magnetization 

 Broyden mixing:
  rms(total) = 0.66021E-03    rms(broyden)= 0.66005E-03
  rms(prec ) = 0.90981E-03
  weight for this iteration     100.00

 eigenvalues of (default mixing * dielectric matrix)
  average eigenvalue GAMMA=   2.1292
  7.1405  3.4501  2.2231  2.2231  1.6273  1.6273  1.3641  0.9946  0.9946  0.8884
  0.8884

 Free energy of the ion-electron system (eV)
  ---------------------------------------------------
  alpha Z        PSCENC =         0.04144063
  Ewald energy   TEWEN  =       702.62410954
  -Hartree energ DENC   =     -1177.65085103
  -exchange      EXHF   =         0.00000000
  -V(xc)+E(xc)   XCENC  =        54.85895785
  PAW double counting   =      1327.78569964    -1330.65304600
  entropy T*S    EENTRO =         0.00000000
  eigenvalues    EBANDS =      -208.81323730
  atomic energy  EATOM  =       596.16534815
  Solvation  Ediel_sol  =         0.00000000
  ---------------------------------------------------
  free energy    TOTEN  =       -35.64157852 eV

  energy without entropy =      -35.64157852  energy(sigma->0) =      -35.64157852


--------------------------------------------------------------------------------------------------------




----------------------------------------- Iteration    1(  17)  ---------------------------------------


    POTLOK:  cpu time   26.2560: real time   26.3184
    SETDIJ:  cpu time    0.0070: real time    0.0068
     EDDAV:  cpu time   97.5262: real time   97.7595
       DOS:  cpu time    0.0000: real time    0.0002
    CHARGE:  cpu time    7.1369: real time    7.1525
    MIXING:  cpu time    1.8097: real time    1.8146
    --------------------------------------------
      LOOP:  cpu time  132.7368: real time  133.0564

 eigenvalue-minimisations  :    96
 total energy-change (2. order) :-0.7891137E-03  (-0.2425574E-05)
 number of electron      15.9999991 magnetization 
 augmentation part        0.4496216 magnetization 

 Broyden mixing:
  rms(total) = 0.39356E-03    rms(broyden)= 0.39344E-03
  rms(prec ) = 0.53540E-03
  weight for this iteration     100.00

 eigenvalues of (default mixing * dielectric matrix)
  average eigenvalue GAMMA=   2.2509
  8.0835  4.2395  2.7357  2.3599  1.6104  1.6104  1.5654  1.0644  0.9895  0.9895
  0.8815  0.8815

 Free energy of the ion-electron system (eV)
  ---------------------------------------------------
  alpha Z        PSCENC =         0.04144063
  Ewald energy   TEWEN  =       702.62410954
  -Hartree energ DENC   =     -1177.66082370
  -exchange      EXHF   =         0.00000000
  -V(xc)+E(xc)   XCENC  =        54.85793540
  PAW double counting   =      1327.63772911    -1330.50484817
  entropy T*S    EENTRO =         0.00000000
  eigenvalues    EBANDS =      -208.80325859
  atomic energy  EATOM  =       596.16534815
  Solvation  Ediel_sol  =         0.00000000
  ---------------------------------------------------
  free energy    TOTEN  =       -35.64236763 eV

  energy without entropy =      -35.64236763  energy(sigma->0) =      -35.64236763


--------------------------------------------------------------------------------------------------------




----------------------------------------- Iteration    1(  18)  ---------------------------------------


    POTLOK:  cpu time   27.1419: real time   27.2063
    SETDIJ:  cpu time    0.0070: real time    0.0070
     EDDAV:  cpu time   70.1463: real time   70.3134
       DOS:  cpu time    0.0000: real time    0.0002
    CHARGE:  cpu time    7.6148: real time    7.6328
    MIXING:  cpu time    1.8607: real time    1.8655
    --------------------------------------------
      LOOP:  cpu time  106.7728: real time  107.0292

 eigenvalue-minimisations  :    64
 total energy-change (2. order) :-0.4081443E-03  (-0.2813272E-05)
 number of electron      15.9999991 magnetization 
 augmentation part        0.4496233 magnetization 

 Broyden mixing:
  rms(total) = 0.26655E-03    rms(broyden)= 0.26649E-03
  rms(prec ) = 0.33162E-03
  weight for this iteration     100.00

 eigenvalues of (default mixing * dielectric matrix)
  average eigenvalue GAMMA=   2.3212
  8.3541  4.6763  2.6148  2.4924  2.4924  1.6456  1.6456  1.4663  1.0045  1.0045
  0.8908  0.8908  0.9970

 Free energy of the ion-electron system (eV)
  ---------------------------------------------------
  alpha Z        PSCENC =         0.04144063
  Ewald energy   TEWEN  =       702.62410954
  -Hartree energ DENC   =     -1177.65452773
  -exchange      EXHF   =         0.00000000
  -V(xc)+E(xc)   XCENC  =        54.85714180
  PAW double counting   =      1327.85352452    -1330.72063492
  entropy T*S    EENTRO =         0.00000000
  eigenvalues    EBANDS =      -208.80917776
  atomic energy  EATOM  =       596.16534815
  Solvation  Ediel_sol  =         0.00000000
  ---------------------------------------------------
  free energy    TOTEN  =       -35.64277578 eV

  energy without entropy =      -35.64277578  energy(sigma->0) =      -35.64277578


--------------------------------------------------------------------------------------------------------




----------------------------------------- Iteration    1(  19)  ---------------------------------------


    POTLOK:  cpu time   28.6986: real time   28.7660
    SETDIJ:  cpu time    0.0070: real time    0.0067
     EDDAV:  cpu time   82.9804: real time   83.1731
       DOS:  cpu time    0.0000: real time    0.0002
    CHARGE:  cpu time    7.5748: real time    7.5923
    MIXING:  cpu time    2.1887: real time    2.1937
    --------------------------------------------
      LOOP:  cpu time  121.4525: real time  121.7373

 eigenvalue-minimisations  :    88
 total energy-change (2. order) :-0.2221818E-03  (-0.9354837E-06)
 number of electron      15.9999991 magnetization 
 augmentation part        0.4496365 magnetization 

 Broyden mixing:
  rms(total) = 0.24291E-03    rms(broyden)= 0.24284E-03
  rms(prec ) = 0.26713E-03
  weight for this iteration     100.00

 eigenvalues of (default mixing * dielectric matrix)
  average eigenvalue GAMMA=   2.3272
  8.6471  5.3208  3.2304  2.6021  2.1046  1.7453  1.5971  1.5971  1.0247  1.0247
  1.0744  0.8767  0.8767  0.8595

 Free energy of the ion-electron system (eV)
  ---------------------------------------------------
  alpha Z        PSCENC =         0.04144063
  Ewald energy   TEWEN  =       702.62410954
  -Hartree energ DENC   =     -1177.64789797
  -exchange      EXHF   =         0.00000000
  -V(xc)+E(xc)   XCENC  =        54.85666209
  PAW double counting   =      1327.83792671    -1330.70515024
  entropy T*S    EENTRO =         0.00000000
  eigenvalues    EBANDS =      -208.81543686
  atomic energy  EATOM  =       596.16534815
  Solvation  Ediel_sol  =         0.00000000
  ---------------------------------------------------
  free energy    TOTEN  =       -35.64299796 eV

  energy without entropy =      -35.64299796  energy(sigma->0) =      -35.64299796


--------------------------------------------------------------------------------------------------------




----------------------------------------- Iteration    1(  20)  ---------------------------------------


    POTLOK:  cpu time   28.1317: real time   28.1968
    SETDIJ:  cpu time    0.0070: real time    0.0067
     EDDAV:  cpu time   84.0422: real time   84.2419
       DOS:  cpu time    0.0000: real time    0.0002
    --------------------------------------------
      LOOP:  cpu time  112.1819: real time  112.4497

 eigenvalue-minimisations  :    80
 total energy-change (2. order) :-0.5111166E-04  (-0.2766744E-06)
 number of electron      15.9999991 magnetization 
 augmentation part        0.4496365 magnetization 

 Free energy of the ion-electron system (eV)
  ---------------------------------------------------
  alpha Z        PSCENC =         0.04144063
  Ewald energy   TEWEN  =       702.62410954
  -Hartree energ DENC   =     -1177.64812378
  -exchange      EXHF   =         0.00000000
  -V(xc)+E(xc)   XCENC  =        54.85652277
  PAW double counting   =      1327.73618718    -1330.60336631
  entropy T*S    EENTRO =         0.00000000
  eigenvalues    EBANDS =      -208.81516723
  atomic energy  EATOM  =       596.16534815
  Solvation  Ediel_sol  =         0.00000000
  ---------------------------------------------------
  free energy    TOTEN  =       -35.64304907 eV

  energy without entropy =      -35.64304907  energy(sigma->0) =      -35.64304907


--------------------------------------------------------------------------------------------------------




 average (electrostatic) potential at core
  the test charge radii are     0.5201  0.6991  0.7089
  (the norm of the test charge is              1.0000)
       1 -43.0777       2 -43.0786       3 -43.0783       4 -60.5353       5 -59.3497
       6 -74.8320
 
 
 
 E-fermi :  -6.1889     XC(G=0):  -0.0951     alpha+bet : -0.0137


 k-point     1 :       0.2500    0.2500    0.2500
  band No.  band energies     occupation 
      1     -23.8867      2.00000
      2     -19.2967      2.00000
      3     -13.8843      2.00000
      4     -11.7950      2.00000
      5     -11.7948      2.00000
      6      -8.3024      2.00000
      7      -8.3022      2.00000
      8      -7.1454      2.00000
      9      -0.7622      0.00000
     10      -0.6652      0.00000
     11      -0.6652      0.00000
     12      -0.0132      0.00000

 k-point     2 :      -0.2500    0.2500    0.2500
  band No.  band energies     occupation 
      1     -23.8867      2.00000
      2     -19.2967      2.00000
      3     -13.8843      2.00000
      4     -11.7950      2.00000
      5     -11.7948      2.00000
      6      -8.3024      2.00000
      7      -8.3022      2.00000
      8      -7.1454      2.00000
      9      -0.7622      0.00000
     10      -0.6652      0.00000
     11      -0.6651      0.00000
     12      -0.0130      0.00000

 k-point     3 :       0.2500   -0.2500    0.2500
  band No.  band energies     occupation 
      1     -23.8867      2.00000
      2     -19.2967      2.00000
      3     -13.8843      2.00000
      4     -11.7950      2.00000
      5     -11.7948      2.00000
      6      -8.3024      2.00000
      7      -8.3022      2.00000
      8      -7.1454      2.00000
      9      -0.7622      0.00000
     10      -0.6652      0.00000
     11      -0.6651      0.00000
     12      -0.0129      0.00000

 k-point     4 :      -0.2500   -0.2500    0.2500
  band No.  band energies     occupation 
      1     -23.8867      2.00000
      2     -19.2967      2.00000
      3     -13.8843      2.00000
      4     -11.7950      2.00000
      5     -11.7948      2.00000
      6      -8.3024      2.00000
      7      -8.3022      2.00000
      8      -7.1454      2.00000
      9      -0.7622      0.00000
     10      -0.6652      0.00000
     11      -0.6651      0.00000
     12      -0.0133      0.00000


--------------------------------------------------------------------------------------------------------


 soft charge-density along one line, spin component           1
         0         1         2         3         4         5         6         7         8         9
 total charge-density along one line
 
 pseudopotential strength for first ion, spin component:           1
 -2.363  -4.075  -0.002   0.001   0.000
 -4.075  -6.942  -0.005   0.002   0.001
 -0.002  -0.005  -0.330  -0.002  -0.001
  0.001   0.002  -0.002  -0.333   0.000
  0.000   0.001  -0.001   0.000  -0.334
 total augmentation occupancy for first ion, spin component:           1
  3.520  -0.634   0.396  -0.186  -0.079
 -0.634   0.131  -0.073   0.034   0.015
  0.396  -0.073   0.046  -0.018  -0.008
 -0.186   0.034  -0.018   0.017   0.004
 -0.079   0.015  -0.008   0.004   0.008


------------------------ aborting loop because EDIFF is reached ----------------------------------------


    CHARGE:  cpu time    8.7547: real time    8.7751
    FORLOC:  cpu time    2.7766: real time    2.7838
    FORNL :  cpu time   24.3133: real time   24.3711
    STRESS:  cpu time   73.7258: real time   73.8996
    FORCOR:  cpu time   28.5267: real time   28.5906
    FORHAR:  cpu time    9.8945: real time    9.9176
    MIXING:  cpu time    2.5096: real time    2.5152
    OFIELD:  cpu time    0.0000: real time    0.0001

  FORCE on cell =-STRESS in cart. coord.  units (eV):
  Direction    XX          YY          ZZ          XY          YZ          ZX
  --------------------------------------------------------------------------------------
  Alpha Z     0.04144     0.04144     0.04144
  Ewald     456.28458   123.80289   122.53631   187.23020   -83.69509  -185.82927
  Hartree   509.04454   334.64532   333.96272    97.92362   -43.77553   -97.17040
  E(xc)     -59.16888   -59.98556   -59.98865     0.46120    -0.20614    -0.45792
  Local   -1114.20163  -628.13963  -626.26562  -273.39813   122.21721   271.32555
  n-local   -26.01877   -24.70214   -24.69196    -0.74395     0.33292     0.74098
  augment     0.61489     0.92040     0.92202    -0.17337     0.07755     0.17224
  Kinetic   232.49927   252.44010   252.51010   -11.25545     5.03206    11.17406
  Fock        0.00000     0.00000     0.00000     0.00000     0.00000     0.00000
  -------------------------------------------------------------------------------------
  Total      -0.90455    -0.97717    -0.97364     0.04412    -0.01701    -0.04476
  in kB      -0.05368    -0.05798    -0.05778     0.00262    -0.00101    -0.00266
  external pressure =       -0.06 kB  Pullay stress =        0.00 kB


 VOLUME and BASIS-vectors are now :
 -----------------------------------------------------------------------------
  energy-cutoff  :      400.00
  volume of cell :    27000.00
      direct lattice vectors                 reciprocal lattice vectors
    30.000000000  0.000000000  0.000000000     0.033333333  0.000000000  0.000000000
     0.000000000 30.000000000  0.000000000     0.000000000  0.033333333  0.000000000
     0.000000000  0.000000000 30.000000000     0.000000000  0.000000000  0.033333333

  length of vectors
    30.000000000 30.000000000 30.000000000     0.033333333  0.033333333  0.033333333


 FORCES acting on ions
    electron-ion (+dipol)            ewald-force                    non-local-force                 convergence-correction
 -----------------------------------------------------------------------------------------------
   0.108E+00 0.596E+02 -.306E+02   0.893E+00 -.646E+02 0.330E+02   -.100E+01 0.506E+01 -.238E+01   -.169E-03 0.221E-03 -.738E-04
   0.528E+02 0.122E+02 0.394E+02   -.567E+02 -.128E+02 -.435E+02   0.387E+01 0.669E+00 0.410E+01   0.820E-04 -.145E-04 0.270E-03
   0.340E+02 -.326E+02 -.477E+02   -.362E+02 0.360E+02 0.516E+02   0.214E+01 -.347E+01 -.396E+01   -.487E-05 -.237E-03 -.158E-03
   0.102E+03 0.460E+02 -.456E+02   -.109E+03 -.489E+02 0.485E+02   0.640E+01 0.288E+01 -.286E+01   -.133E-02 -.582E-03 0.614E-03
   -.195E+03 -.876E+02 0.870E+02   0.217E+03 0.977E+02 -.970E+02   -.225E+02 -.101E+02 0.100E+02   0.154E-02 0.679E-03 -.678E-03
   0.139E+02 0.612E+01 -.622E+01   -.165E+02 -.728E+01 0.739E+01   0.261E+01 0.116E+01 -.117E+01   -.153E-02 -.689E-03 0.689E-03
 -----------------------------------------------------------------------------------------------
   0.844E+01 0.380E+01 -.377E+01   0.000E+00 0.142E-13 0.142E-13   -.844E+01 -.380E+01 0.378E+01   -.140E-02 -.623E-03 0.663E-03
 
 
 POSITION                                       TOTAL-FORCE (eV/Angst)
 -----------------------------------------------------------------------------------
     14.87076     13.68134     15.75421         0.001261      0.003100     -0.002844
     13.92450     14.53298     14.49695         0.002687      0.000629     -0.002137
     14.26152     15.33554     16.05998         0.001482      0.002386      0.000198
     14.66947     14.65970     15.29521         0.001964     -0.000722     -0.002107
     16.86272     15.64761     14.31484        -0.017360     -0.010146      0.008639
     15.86566     15.19893     14.76062         0.009966      0.004753     -0.001748
 -----------------------------------------------------------------------------------
    total drift:                               -0.001602     -0.000687      0.006733


--------------------------------------------------------------------------------------------------------



  FREE ENERGIE OF THE ION-ELECTRON SYSTEM (eV)
  ---------------------------------------------------
  free  energy   TOTEN  =       -35.64304907 eV

  energy  without entropy=      -35.64304907  energy(sigma->0) =      -35.64304907
 


--------------------------------------------------------------------------------------------------------


    POTLOK:  cpu time   22.4186: real time   22.4664


--------------------------------------------------------------------------------------------------------


 NEB: the previous image is higher in energy: F
 NEB: the next image is higher in energy    : T
 NEB: only next energy greater

 NEB: Tangent
 ----------------------------------------------
     -0.35435      0.24523     -0.05421
      0.10354      0.16276     -0.37030
     -0.23562      0.32858     -0.41212
     -0.12027      0.19700     -0.20070
      0.20268     -0.17029      0.35651
      0.05172      0.02114      0.09925

 NEB: forces: par spring, perp REAL, dneb     1.263809    0.025257    0.000000
 NEB: distance to prev, next image, angle between     1.077258    0.824497   80.280046
 NEB: projections on to tangent (spring, REAL)    -1.263809    0.003769

 stress matrix after NEB project (eV)
     -0.90455      0.04412     -0.04476
      0.04412     -0.97717     -0.01701
     -0.04476     -0.01701     -0.97364
  FORCES: max atom, RMS     0.731220    0.516051
  FORCE total and by dimension    1.264061    0.522589
  Stress total and by dimension    1.652123    0.977166
 
 OPT: Flag T
 OPT: FIRE Step
 OPT: FIRE, TIMESTEP      0.10000
 OPT: FIRE, alpha         0.10000


--------------------------------------------------------------------------------------------------------


    WAVPRE:  cpu time    6.9489: real time    6.9668
 FEWALD executed in parallel
    FEWALD:  cpu time    0.0000: real time    0.0003
    ORTHCH:  cpu time    6.0941: real time    6.1114
     LOOP+:  cpu time 3184.3919: real time 3192.1883


----------------------------------------- Iteration    2(   1)  ---------------------------------------


    POTLOK:  cpu time   21.8877: real time   21.9516
    SETDIJ:  cpu time    0.0060: real time    0.0065
     EDDAV:  cpu time   69.6284: real time   69.8355
       DOS:  cpu time    0.0000: real time    0.0002
    CHARGE:  cpu time    6.0531: real time    6.0710
    MIXING:  cpu time    0.5409: real time    0.5424
    --------------------------------------------
      LOOP:  cpu time   98.1171: real time   98.4095

 eigenvalue-minimisations  :    96
 total energy-change (2. order) : 0.1845762E-04  (-0.1490019E-01)
 number of electron      15.9999994 magnetization 
 augmentation part        0.4493747 magnetization 

 Broyden mixing:
  rms(total) = 0.95818E-02    rms(broyden)= 0.95415E-02
  rms(prec ) = 0.97307E-02
  weight for this iteration     100.00

 Free energy of the ion-electron system (eV)
  ---------------------------------------------------
  alpha Z        PSCENC =         0.04144063
  Ewald energy   TEWEN  =       702.37171002
  -Hartree energ DENC   =     -1177.46444420
  -exchange      EXHF   =         0.00000000
  -V(xc)+E(xc)   XCENC  =        54.85215751
  PAW double counting   =      1327.77233292    -1330.63950978
  entropy T*S    EENTRO =         0.00000000
  eigenvalues    EBANDS =      -208.74201475
  atomic energy  EATOM  =       596.16534815
  Solvation  Ediel_sol  =         0.00000000
  ---------------------------------------------------
  free energy    TOTEN  =       -35.64297950 eV

  energy without entropy =      -35.64297950  energy(sigma->0) =      -35.64297950


--------------------------------------------------------------------------------------------------------




----------------------------------------- Iteration    2(   2)  ---------------------------------------


    POTLOK:  cpu time   21.4777: real time   21.5421
    SETDIJ:  cpu time    0.0070: real time    0.0064
     EDDAV:  cpu time   77.4282: real time   77.6766
       DOS:  cpu time    0.0000: real time    0.0002
    CHARGE:  cpu time    6.6640: real time    6.6863
    MIXING:  cpu time    0.6619: real time    0.6641
    --------------------------------------------
      LOOP:  cpu time  106.2418: real time  106.5796

 eigenvalue-minimisations  :   112
 total energy-change (2. order) :-0.4965213E-04  (-0.1690621E-03)
 number of electron      15.9999994 magnetization 
 augmentation part        0.4493578 magnetization 

 Broyden mixing:
  rms(total) = 0.62373E-02    rms(broyden)= 0.62313E-02
  rms(prec ) = 0.63537E-02
  weight for this iteration     100.00

 eigenvalues of (default mixing * dielectric matrix)
  average eigenvalue GAMMA=   1.7685
  1.7685

 Free energy of the ion-electron system (eV)
  ---------------------------------------------------
  alpha Z        PSCENC =         0.04144063
  Ewald energy   TEWEN  =       702.37171002
  -Hartree energ DENC   =     -1177.44051537
  -exchange      EXHF   =         0.00000000
  -V(xc)+E(xc)   XCENC  =        54.85107145
  PAW double counting   =      1327.37229467    -1330.23911835
  entropy T*S    EENTRO =         0.00000000
  eigenvalues    EBANDS =      -208.76526034
  atomic energy  EATOM  =       596.16534815
  Solvation  Ediel_sol  =         0.00000000
  ---------------------------------------------------
  free energy    TOTEN  =       -35.64302915 eV

  energy without entropy =      -35.64302915  energy(sigma->0) =      -35.64302915


--------------------------------------------------------------------------------------------------------




----------------------------------------- Iteration    2(   3)  ---------------------------------------


    POTLOK:  cpu time   23.2125: real time   23.2869
    SETDIJ:  cpu time    0.0070: real time    0.0065
     EDDAV:  cpu time   70.5903: real time   70.7715
       DOS:  cpu time    0.0000: real time    0.0002
    CHARGE:  cpu time    6.5270: real time    6.5464
    MIXING:  cpu time    0.7929: real time    0.7946
    --------------------------------------------
      LOOP:  cpu time  101.1306: real time  101.5132

 eigenvalue-minimisations  :    88
 total energy-change (2. order) :-0.2905330E-04  (-0.8554344E-05)
 number of electron      15.9999994 magnetization 
 augmentation part        0.4493928 magnetization 

 Broyden mixing:
  rms(total) = 0.15828E-02    rms(broyden)= 0.15815E-02
  rms(prec ) = 0.16084E-02
  weight for this iteration     100.00

 eigenvalues of (default mixing * dielectric matrix)
  average eigenvalue GAMMA=   1.6374
  0.9638  2.3111

 Free energy of the ion-electron system (eV)
  ---------------------------------------------------
  alpha Z        PSCENC =         0.04144063
  Ewald energy   TEWEN  =       702.37171002
  -Hartree energ DENC   =     -1177.41621330
  -exchange      EXHF   =         0.00000000
  -V(xc)+E(xc)   XCENC  =        54.84989628
  PAW double counting   =      1326.91114764    -1329.77761015
  entropy T*S    EENTRO =         0.00000000
  eigenvalues    EBANDS =      -208.78877747
  atomic energy  EATOM  =       596.16534815
  Solvation  Ediel_sol  =         0.00000000
  ---------------------------------------------------
  free energy    TOTEN  =       -35.64305820 eV

  energy without entropy =      -35.64305820  energy(sigma->0) =      -35.64305820


--------------------------------------------------------------------------------------------------------




----------------------------------------- Iteration    2(   4)  ---------------------------------------


    POTLOK:  cpu time   21.1868: real time   21.2494
    SETDIJ:  cpu time    0.0060: real time    0.0064
     EDDAV:  cpu time   53.0079: real time   53.1681
[...]
  Solvation  Ediel_sol  =         0.00000000
  ---------------------------------------------------
  free energy    TOTEN  =       -35.64337789 eV

  energy without entropy =      -35.64337789  energy(sigma->0) =      -35.64337789


--------------------------------------------------------------------------------------------------------




----------------------------------------- Iteration   74(   2)  ---------------------------------------


    POTLOK:  cpu time   22.8495: real time   22.8953
    SETDIJ:  cpu time    0.0070: real time    0.0064
     EDDAV:  cpu time   36.3555: real time   36.4277
       DOS:  cpu time    0.0000: real time    0.0002
    CHARGE:  cpu time    4.9223: real time    4.9319
    MIXING:  cpu time    0.5619: real time    0.5634
    --------------------------------------------
      LOOP:  cpu time   64.6982: real time   64.8301

 eigenvalue-minimisations  :    48
 total energy-change (2. order) :-0.3040765E-06  (-0.8960844E-06)
 number of electron      16.0000005 magnetization 
 augmentation part        0.4497352 magnetization 

 Broyden mixing:
  rms(total) = 0.41401E-03    rms(broyden)= 0.41384E-03
  rms(prec ) = 0.42186E-03
  weight for this iteration     100.00

 eigenvalues of (default mixing * dielectric matrix)
  average eigenvalue GAMMA=   1.7961
  1.7961

 Free energy of the ion-electron system (eV)
  ---------------------------------------------------
  alpha Z        PSCENC =         0.04144063
  Ewald energy   TEWEN  =       702.72776915
  -Hartree energ DENC   =     -1177.74350130
  -exchange      EXHF   =         0.00000000
  -V(xc)+E(xc)   XCENC  =        54.85861341
  PAW double counting   =      1327.78657073    -1330.65403045
  entropy T*S    EENTRO =         0.00000000
  eigenvalues    EBANDS =      -208.82558852
  atomic energy  EATOM  =       596.16534815
  Solvation  Ediel_sol  =         0.00000000
  ---------------------------------------------------
  free energy    TOTEN  =       -35.64337820 eV

  energy without entropy =      -35.64337820  energy(sigma->0) =      -35.64337820


--------------------------------------------------------------------------------------------------------




----------------------------------------- Iteration   74(   3)  ---------------------------------------


    POTLOK:  cpu time   21.2748: real time   21.3169
    SETDIJ:  cpu time    0.0060: real time    0.0063
     EDDAV:  cpu time   39.2990: real time   39.3783
       DOS:  cpu time    0.0000: real time    0.0002
    CHARGE:  cpu time    5.0402: real time    5.0498
    MIXING:  cpu time    0.7349: real time    0.7372
    --------------------------------------------
      LOOP:  cpu time   66.3549: real time   66.4917

 eigenvalue-minimisations  :    56
 total energy-change (2. order) :-0.1718422E-06  (-0.1438219E-06)
 number of electron      16.0000005 magnetization 
 augmentation part        0.4497304 magnetization 

 Broyden mixing:
  rms(total) = 0.11800E-03    rms(broyden)= 0.11790E-03
  rms(prec ) = 0.11973E-03
  weight for this iteration     100.00

 eigenvalues of (default mixing * dielectric matrix)
  average eigenvalue GAMMA=   1.6752
  1.0704  2.2800

 Free energy of the ion-electron system (eV)
  ---------------------------------------------------
  alpha Z        PSCENC =         0.04144063
  Ewald energy   TEWEN  =       702.72776915
  -Hartree energ DENC   =     -1177.74627152
  -exchange      EXHF   =         0.00000000
  -V(xc)+E(xc)   XCENC  =        54.85876868
  PAW double counting   =      1327.84240331    -1330.70990138
  entropy T*S    EENTRO =         0.00000000
  eigenvalues    EBANDS =      -208.82293540
  atomic energy  EATOM  =       596.16534815
  Solvation  Ediel_sol  =         0.00000000
  ---------------------------------------------------
  free energy    TOTEN  =       -35.64337837 eV

  energy without entropy =      -35.64337837  energy(sigma->0) =      -35.64337837


--------------------------------------------------------------------------------------------------------




----------------------------------------- Iteration   74(   4)  ---------------------------------------


    POTLOK:  cpu time   20.5259: real time   20.5657
    SETDIJ:  cpu time    0.0050: real time    0.0064
     EDDAV:  cpu time   36.1075: real time   36.1822
       DOS:  cpu time    0.0000: real time    0.0002
    CHARGE:  cpu time    5.1792: real time    5.1905
    MIXING:  cpu time    0.6909: real time    0.6920
    --------------------------------------------
      LOOP:  cpu time   62.5115: real time   62.6450

 eigenvalue-minimisations  :    48
 total energy-change (2. order) :-0.6178720E-07  (-0.3852935E-07)
 number of electron      16.0000005 magnetization 
 augmentation part        0.4497301 magnetization 

 Broyden mixing:
  rms(total) = 0.46609E-04    rms(broyden)= 0.46559E-04
  rms(prec ) = 0.47576E-04
  weight for this iteration     100.00

 eigenvalues of (default mixing * dielectric matrix)
  average eigenvalue GAMMA=   1.6676
  2.4259  1.1147  1.4623

 Free energy of the ion-electron system (eV)
  ---------------------------------------------------
  alpha Z        PSCENC =         0.04144063
  Ewald energy   TEWEN  =       702.72776915
  -Hartree energ DENC   =     -1177.74623628
  -exchange      EXHF   =         0.00000000
  -V(xc)+E(xc)   XCENC  =        54.85877872
  PAW double counting   =      1327.86592994    -1330.73342751
  entropy T*S    EENTRO =         0.00000000
  eigenvalues    EBANDS =      -208.82298122
  atomic energy  EATOM  =       596.16534815
  Solvation  Ediel_sol  =         0.00000000
  ---------------------------------------------------
  free energy    TOTEN  =       -35.64337843 eV

  energy without entropy =      -35.64337843  energy(sigma->0) =      -35.64337843


--------------------------------------------------------------------------------------------------------




----------------------------------------- Iteration   74(   5)  ---------------------------------------


    POTLOK:  cpu time   20.5529: real time   20.5934
    SETDIJ:  cpu time    0.0060: real time    0.0064
     EDDAV:  cpu time   36.0605: real time   36.1314
       DOS:  cpu time    0.0000: real time    0.0002
    CHARGE:  cpu time    5.3352: real time    5.3462
    MIXING:  cpu time    1.1018: real time    1.1042
    --------------------------------------------
      LOOP:  cpu time   63.0584: real time   63.5309

 eigenvalue-minimisations  :    48
 total energy-change (2. order) :-0.1886906E-07  (-0.1315526E-07)
 number of electron      16.0000005 magnetization 
 augmentation part        0.4497299 magnetization 

 Broyden mixing:
  rms(total) = 0.20264E-04    rms(broyden)= 0.20245E-04
  rms(prec ) = 0.20862E-04
  weight for this iteration     100.00

 eigenvalues of (default mixing * dielectric matrix)
  average eigenvalue GAMMA=   1.7131
  2.5862  2.0663  0.9654  1.2345

 Free energy of the ion-electron system (eV)
  ---------------------------------------------------
  alpha Z        PSCENC =         0.04144063
  Ewald energy   TEWEN  =       702.72776915
  -Hartree energ DENC   =     -1177.74573224
  -exchange      EXHF   =         0.00000000
  -V(xc)+E(xc)   XCENC  =        54.85875541
  PAW double counting   =      1327.87978720    -1330.74727672
  entropy T*S    EENTRO =         0.00000000
  eigenvalues    EBANDS =      -208.82347002
  atomic energy  EATOM  =       596.16534815
  Solvation  Ediel_sol  =         0.00000000
  ---------------------------------------------------
  free energy    TOTEN  =       -35.64337845 eV

  energy without entropy =      -35.64337845  energy(sigma->0) =      -35.64337845


--------------------------------------------------------------------------------------------------------




----------------------------------------- Iteration   74(   6)  ---------------------------------------


    POTLOK:  cpu time   21.4217: real time   21.4640
    SETDIJ:  cpu time    0.0070: real time    0.0064
     EDDAV:  cpu time   35.4036: real time   35.4744
       DOS:  cpu time    0.0000: real time    0.0002
    --------------------------------------------
      LOOP:  cpu time   56.8334: real time   56.9488

 eigenvalue-minimisations  :    48
 total energy-change (2. order) :-0.2226898E-07  (-0.7402928E-08)
 number of electron      16.0000005 magnetization 
 augmentation part        0.4497299 magnetization 

 Free energy of the ion-electron system (eV)
  ---------------------------------------------------
  alpha Z        PSCENC =         0.04144063
  Ewald energy   TEWEN  =       702.72776915
  -Hartree energ DENC   =     -1177.74542798
  -exchange      EXHF   =         0.00000000
  -V(xc)+E(xc)   XCENC  =        54.85874015
  PAW double counting   =      1327.88793092    -1330.75541584
  entropy T*S    EENTRO =         0.00000000
  eigenvalues    EBANDS =      -208.82376365
  atomic energy  EATOM  =       596.16534815
  Solvation  Ediel_sol  =         0.00000000
  ---------------------------------------------------
  free energy    TOTEN  =       -35.64337847 eV

  energy without entropy =      -35.64337847  energy(sigma->0) =      -35.64337847


--------------------------------------------------------------------------------------------------------




 average (electrostatic) potential at core
  the test charge radii are     0.5201  0.6991  0.7089
  (the norm of the test charge is              1.0000)
       1 -43.0792       2 -43.0797       3 -43.0783       4 -60.5355       5 -59.3477
       6 -74.8316
 
 
 
 E-fermi :  -6.1634     XC(G=0):  -0.0611     alpha+bet : -0.0137


 k-point     1 :       0.2500    0.2500    0.2500
  band No.  band energies     occupation 
      1     -23.8887      2.00000
      2     -19.2980      2.00000
      3     -13.8829      2.00000
      4     -11.7971      2.00000
      5     -11.7961      2.00000
      6      -8.3030      2.00000
      7      -8.3023      2.00000
      8      -7.1439      2.00000
      9      -0.7629      0.00000
     10      -0.6633      0.00000
     11      -0.6628      0.00000
     12       0.0239      0.00000

 k-point     2 :      -0.2500    0.2500    0.2500
  band No.  band energies     occupation 
      1     -23.8887      2.00000
      2     -19.2980      2.00000
      3     -13.8829      2.00000
      4     -11.7971      2.00000
      5     -11.7961      2.00000
      6      -8.3030      2.00000
      7      -8.3023      2.00000
      8      -7.1439      2.00000
      9      -0.7629      0.00000
     10      -0.6633      0.00000
     11      -0.6628      0.00000
     12       0.0238      0.00000

 k-point     3 :       0.2500   -0.2500    0.2500
  band No.  band energies     occupation 
      1     -23.8887      2.00000
      2     -19.2980      2.00000
      3     -13.8829      2.00000
      4     -11.7971      2.00000
      5     -11.7961      2.00000
      6      -8.3030      2.00000
      7      -8.3023      2.00000
      8      -7.1439      2.00000
      9      -0.7629      0.00000
     10      -0.6632      0.00000
     11      -0.6628      0.00000
     12       0.0239      0.00000

 k-point     4 :      -0.2500   -0.2500    0.2500
  band No.  band energies     occupation 
      1     -23.8887      2.00000
      2     -19.2980      2.00000
      3     -13.8829      2.00000
      4     -11.7971      2.00000
      5     -11.7961      2.00000
      6      -8.3030      2.00000
      7      -8.3023      2.00000
      8      -7.1439      2.00000
      9      -0.7629      0.00000
     10      -0.6632      0.00000
     11      -0.6628      0.00000
     12       0.0235      0.00000


--------------------------------------------------------------------------------------------------------


 soft charge-density along one line, spin component           1
         0         1         2         3         4         5         6         7         8         9
 total charge-density along one line
 
 pseudopotential strength for first ion, spin component:           1
 -2.363  -4.075  -0.002   0.001   0.000
 -4.075  -6.942  -0.005   0.002   0.001
 -0.002  -0.005  -0.330  -0.002  -0.001
  0.001   0.002  -0.002  -0.333   0.000
  0.000   0.001  -0.001   0.000  -0.334
 total augmentation occupancy for first ion, spin component:           1
  3.521  -0.634   0.403  -0.158  -0.102
 -0.634   0.131  -0.074   0.029   0.019
  0.403  -0.074   0.048  -0.015  -0.010
 -0.158   0.029  -0.015   0.014   0.005
 -0.102   0.019  -0.010   0.005   0.009


------------------------ aborting loop because EDIFF is reached ----------------------------------------


    CHARGE:  cpu time    5.2282: real time    5.2389
    FORLOC:  cpu time    2.3116: real time    2.3160
    FORNL :  cpu time   16.5575: real time   16.5896
    STRESS:  cpu time   50.5373: real time   50.6371
    FORCOR:  cpu time   21.4477: real time   21.4885
    FORHAR:  cpu time    7.2919: real time    7.3051
    MIXING:  cpu time    0.7349: real time    0.7369
    OFIELD:  cpu time    0.0000: real time    0.0000

  FORCE on cell =-STRESS in cart. coord.  units (eV):
  Direction    XX          YY          ZZ          XY          YZ          ZX
  --------------------------------------------------------------------------------------
  Alpha Z     0.04144     0.04144     0.04144
  Ewald     413.39769   140.19948   149.13029   193.75489  -104.98436  -202.11164
  Hartree   486.66270   343.22826   347.85468   101.31638   -54.84786  -105.63369
  E(xc)     -59.27755   -59.94735   -59.92512     0.47727    -0.25894    -0.49828
  Local   -1051.64120  -652.08110  -665.06592  -282.89650   153.22100   295.02972
  n-local   -25.84218   -24.77536   -24.81916    -0.77002     0.42285     0.80941
  augment     0.65296     0.90388     0.89834    -0.17963     0.09735     0.18750
  Kinetic   235.12069   251.46007   250.91069   -11.64326     6.31612    12.15330
  Fock        0.00000     0.00000     0.00000     0.00000     0.00000     0.00000
  -------------------------------------------------------------------------------------
  Total      -0.88546    -0.97068    -0.97476     0.05914    -0.03384    -0.06368
  in kB      -0.05254    -0.05760    -0.05784     0.00351    -0.00201    -0.00378
  external pressure =       -0.06 kB  Pullay stress =        0.00 kB


 VOLUME and BASIS-vectors are now :
 -----------------------------------------------------------------------------
  energy-cutoff  :      400.00
  volume of cell :    27000.00
      direct lattice vectors                 reciprocal lattice vectors
    30.000000000  0.000000000  0.000000000     0.033333333  0.000000000  0.000000000
     0.000000000 30.000000000  0.000000000     0.000000000  0.033333333  0.000000000
     0.000000000  0.000000000 30.000000000     0.000000000  0.000000000  0.033333333

  length of vectors
    30.000000000 30.000000000 30.000000000     0.033333333  0.033333333  0.033333333


 FORCES acting on ions
    electron-ion (+dipol)            ewald-force                    non-local-force                 convergence-correction
 -----------------------------------------------------------------------------------------------
   -.354E+01 0.610E+02 -.274E+02   0.482E+01 -.662E+02 0.294E+02   -.128E+01 0.515E+01 -.202E+01   0.120E-04 -.182E-05 0.211E-04
   0.560E+02 0.112E+02 0.351E+02   -.602E+02 -.117E+02 -.389E+02   0.422E+01 0.537E+00 0.376E+01   -.692E-05 0.585E-05 0.247E-05
   0.300E+02 -.295E+02 -.521E+02   -.319E+02 0.327E+02 0.564E+02   0.182E+01 -.323E+01 -.430E+01   0.108E-04 0.168E-04 0.208E-04
   0.969E+02 0.503E+02 -.523E+02   -.103E+03 -.534E+02 0.556E+02   0.607E+01 0.314E+01 -.327E+01   0.505E-04 0.504E-04 0.772E-04
   -.184E+03 -.958E+02 0.100E+03   0.205E+03 0.107E+03 -.112E+03   -.212E+02 -.111E+02 0.116E+02   0.756E-04 0.130E-03 0.179E-03
   0.127E+02 0.694E+01 -.766E+01   -.152E+02 -.824E+01 0.907E+01   0.243E+01 0.130E+01 -.140E+01   0.823E-04 0.133E-03 0.152E-03
 -----------------------------------------------------------------------------------------------
   0.799E+01 0.415E+01 -.434E+01   0.000E+00 0.000E+00 0.142E-13   -.799E+01 -.415E+01 0.435E+01   0.224E-03 0.334E-03 0.453E-03
 
 
 POSITION                                       TOTAL-FORCE (eV/Angst)
 -----------------------------------------------------------------------------------
     14.96483     13.60629     15.74061         0.001889      0.000725     -0.002107
     13.89698     14.50133     14.61807         0.000684      0.000169      0.001122
     14.36225     15.23170     16.18419         0.000119     -0.002915     -0.002977
     14.70876     14.60220     15.35235        -0.003702     -0.000177     -0.000251
     16.78623     15.68101     14.22727         0.002667      0.001016      0.004558
     15.84326     15.19019     14.74068        -0.001656      0.001183     -0.000344
 -----------------------------------------------------------------------------------
    total drift:                               -0.001480      0.001311      0.010209


--------------------------------------------------------------------------------------------------------



  FREE ENERGIE OF THE ION-ELECTRON SYSTEM (eV)
  ---------------------------------------------------
  free  energy   TOTEN  =       -35.64337847 eV

  energy  without entropy=      -35.64337847  energy(sigma->0) =      -35.64337847
 
 d Force =-0.4172644E-06[-0.104E-05, 0.210E-06]  d Energy = 0.2840893E-06-0.701E-06
 d Force =-0.3319784E-01[-0.332E-01,-0.332E-01]  d Ewald  =-0.3319784E-01 0.155E-08


--------------------------------------------------------------------------------------------------------


    POTLOK:  cpu time   19.0501: real time   19.0859


--------------------------------------------------------------------------------------------------------


 NEB: the previous image is higher in energy: F
 NEB: the next image is higher in energy    : T
 NEB: only next energy greater

 NEB: Tangent
 ----------------------------------------------
     -0.16101      0.23418      0.06702
      0.24135     -0.13383     -0.36933
     -0.39873      0.17085     -0.50568
     -0.08342      0.10510     -0.18956
      0.08969      0.17316      0.36095
      0.00392      0.15467      0.10998

 NEB: forces: par spring, perp REAL, dneb     0.036981    0.008120    0.000000
 NEB: distance to prev, next image, angle between     1.108155    1.100759   96.157906
 NEB: projections on to tangent (spring, REAL)    -0.036981    0.002949

 stress matrix after NEB project (eV)
     -0.88546      0.05914     -0.06368
      0.05914     -0.97068     -0.03384
     -0.06368     -0.03384     -0.97476
  FORCES: max atom, RMS     0.025465    0.015457
  FORCE total and by dimension    0.037862    0.017215
  Stress total and by dimension    1.641283    0.974760
 OPT: skip step - force has converged


--------------------------------------------------------------------------------------------------------


  
 reached required accuracy - stopping structural energy minimisation
     LOOP+:  cpu time  579.1949: real time  580.8370
    4ORBIT:  cpu time    0.0000: real time    0.0000

 total amount of memory used by VASP on root node  3203887. kBytes
========================================================================

   base      :      30000. kBytes
   nonlr-proj:        691. kBytes
   fftplans  :     924480. kBytes
   grid      :    1872000. kBytes
   one-center:         18. kBytes
   wavefun   :     376698. kBytes
 
  
  
 General timing and accounting informations for this job:
 ========================================================
  
                  Total CPU time used (sec):    49662.980
                            User time (sec):    48985.919
                          System time (sec):      677.062
                         Elapsed time (sec):    49851.804
  
                   Maximum memory used (kb):     4761916.
                   Average memory used (kb):           0.
  
                          Minor page faults:      7914723
                          Major page faults:            5
                 Voluntary context switches:         9246
