 vasp.5.4.1 24Jun15 (build Jan 13 2020 12:58:22) complex                        
  
 POSCAR found type information on POSCAR  H  C  N 
 04/POSCAR found :  3 types and       6 ions
 scaLAPACK will be used

 ----------------------------------------------------------------------------- 
|                                                                             |
|  ADVICE TO THIS USER RUNNING 'VASP/VAMP'   (HEAR YOUR MASTER'S VOICE ...):  |
|                                                                             |
|      You have a (more or less) 'small supercell' and for smaller cells      |
|      it is recommended  to use the reciprocal-space projection scheme!      |
|      The real space optimization is not  efficient for small cells and it   |
|      is also less accurate ...                                              |
|      Therefore set LREAL=.FALSE. in the  INCAR file                         |
|                                                                             |
 ----------------------------------------------------------------------------- 

 LDA part: xc-table for Pade appr. of Perdew
 POSCAR found type information on POSCAR  H  C  N 
 00/POSCAR found :  3 types and       6 ions
 POSCAR found type information on POSCAR  H  C  N 
 16/POSCAR found :  3 types and       6 ions
 Jacobian:    40.4401846379183     
 POSCAR, INCAR and KPOINTS ok, starting setup
 WARNING: small aliasing (wrap around) errors must be expected
 FFT: planning ...
 WAVECAR not read
 entering main loop
       N       E                     dE             d eps       ncg     rms          rms(c)
DAV:   1     0.112193268015E+03    0.11219E+03   -0.21537E+03   160   0.366E+02
DAV:   2    -0.181297728519E+01   -0.11401E+03   -0.11183E+03   192   0.109E+02
DAV:   3    -0.342126493962E+02   -0.32400E+02   -0.32294E+02   136   0.858E+01
DAV:   4    -0.389194776235E+02   -0.47068E+01   -0.46556E+01   128   0.305E+01
DAV:   5    -0.390918088383E+02   -0.17233E+00   -0.17008E+00   112   0.617E+00    0.104E+01
DAV:   6    -0.364109022781E+02    0.26809E+01   -0.43956E+00   124   0.146E+01    0.562E+00
DAV:   7    -0.357070123398E+02    0.70389E+00   -0.18588E+00   124   0.933E+00    0.222E+00
DAV:   8    -0.356380957627E+02    0.68917E-01   -0.13205E-01   128   0.278E+00    0.870E-01
DAV:   9    -0.356197866339E+02    0.18309E-01   -0.20773E-02   128   0.122E+00    0.213E-01
DAV:  10    -0.356196983980E+02    0.88236E-04   -0.42667E-03   124   0.506E-01    0.129E-01
DAV:  11    -0.356213934136E+02   -0.16950E-02   -0.16946E-03   124   0.336E-01    0.802E-02
DAV:  12    -0.356270609087E+02   -0.56675E-02   -0.29749E-03   120   0.416E-01    0.453E-02
DAV:  13    -0.356331162401E+02   -0.60553E-02   -0.16617E-03   128   0.249E-01    0.286E-02
DAV:  14    -0.356370369668E+02   -0.39207E-02   -0.46949E-04   128   0.117E-01    0.185E-02
DAV:  15    -0.356403585414E+02   -0.33216E-02   -0.36081E-04   128   0.888E-02    0.119E-02
DAV:  16    -0.356415785171E+02   -0.12200E-02   -0.10791E-04   128   0.534E-02    0.660E-03
DAV:  17    -0.356423676308E+02   -0.78911E-03   -0.24256E-05    96   0.356E-02    0.394E-03
DAV:  18    -0.356427757751E+02   -0.40814E-03   -0.28133E-05    64   0.243E-02    0.267E-03
DAV:  19    -0.356429979569E+02   -0.22218E-03   -0.93548E-06    88   0.202E-02    0.243E-03
DAV:  20    -0.356430490686E+02   -0.51112E-04   -0.27667E-06    80   0.114E-02
   1 F= -.35643049E+02 E0= -.35643049E+02  d E =-.356430E+02
damped:  g(F)=  0.000E+00 g(S)=  0.000E+00 dE (1.order)= 0.000E+00
 bond charge predicted
       N       E                     dE             d eps       ncg     rms          rms(c)
DAV:   1    -0.356429794993E+02    0.18458E-04   -0.14900E-01    96   0.348E+00    0.958E-02
DAV:   2    -0.356430291514E+02   -0.49652E-04   -0.16906E-03   112   0.355E-01    0.624E-02
DAV:   3    -0.356430582047E+02   -0.29053E-04   -0.85543E-05    88   0.991E-02    0.158E-02
DAV:   4    -0.356430738356E+02   -0.15631E-04   -0.31332E-05    64   0.470E-02    0.649E-03
DAV:   5    -0.356430800075E+02   -0.61719E-05   -0.48943E-06    76   0.201E-02    0.188E-03
DAV:   6    -0.356430840806E+02   -0.40730E-05   -0.95935E-07    80   0.755E-03
   2 F= -.35643084E+02 E0= -.35643084E+02  d E =-.350120E-04
damped:  g(F)=  0.000E+00 g(S)=  0.000E+00 dE (1.order)= 0.000E+00
 bond charge predicted
       N       E                     dE             d eps       ncg     rms          rms(c)
DAV:   1    -0.356426649704E+02    0.41504E-03   -0.57119E-01    96   0.680E+00    0.188E-01
DAV:   2    -0.356428706787E+02   -0.20571E-03   -0.64971E-03   112   0.696E-01    0.122E-01
DAV:   3    -0.356428920578E+02   -0.21379E-04   -0.37062E-04   112   0.192E-01    0.308E-02
DAV:   4    -0.356429288367E+02   -0.36779E-04   -0.69185E-05    96   0.696E-02    0.123E-02
DAV:   5    -0.356429362940E+02   -0.74574E-05   -0.10379E-05    64   0.291E-02    0.367E-03
DAV:   6    -0.356429417158E+02   -0.54217E-05   -0.22257E-06    96   0.124E-02
   3 F= -.35642942E+02 E0= -.35642942E+02  d E =0.142365E-03
damped:  g(F)=  0.000E+00 g(S)=  0.000E+00 dE (1.order)= 0.000E+00
 bond charge predicted
       N       E                     dE             d eps       ncg     rms          rms(c)
DAV:   1    -0.356420330169E+02    0.90328E-03   -0.11953E+00    96   0.985E+00    0.271E-01
DAV:   2    -0.356425420565E+02   -0.50904E-03   -0.13594E-02   112   0.100E+00    0.176E-01
DAV:   3    -0.356425268025E+02    0.15254E-04   -0.75566E-04   112   0.276E-01    0.449E-02
DAV:   4    -0.356425989942E+02   -0.72192E-04   -0.14589E-04    96   0.101E-01    0.176E-02
DAV:   5    -0.356426156513E+02   -0.16657E-04   -0.21705E-05    64   0.424E-02    0.512E-03
DAV:   6    -0.356426271987E+02   -0.11547E-04   -0.45413E-06    68   0.174E-02
   4 F= -.35642627E+02 E0= -.35642627E+02  d E =0.314517E-03
damped:  g(F)=  0.000E+00 g(S)=  0.000E+00 dE (1.order)= 0.000E+00
 bond charge predicted
       N       E                     dE             d eps       ncg     rms          rms(c)
DAV:   1    -0.356414588366E+02    0.11568E-02   -0.17451E+00    96   0.119E+01    0.329E-01
DAV:   2    -0.356422948346E+02   -0.83600E-03   -0.19625E-02   112   0.121E+00    0.213E-01
DAV:   3    -0.356422490450E+02    0.45790E-04   -0.10300E-03   112   0.328E-01    0.543E-02
DAV:   4    -0.356423536133E+02   -0.10457E-03   -0.24185E-04   116   0.123E-01    0.225E-02
DAV:   5    -0.356423728642E+02   -0.19251E-04   -0.16185E-05    64   0.411E-02    0.595E-03
DAV:   6    -0.356423904196E+02   -0.17555E-04   -0.53248E-06    80   0.190E-02
   5 F= -.35642390E+02 E0= -.35642390E+02  d E =0.236779E-03
damped:  g(F)=  0.000E+00 g(S)=  0.000E+00 dE (1.order)= 0.000E+00
 bond charge predicted
       N       E                     dE             d eps       ncg     rms          rms(c)
DAV:   1    -0.356411267490E+02    0.12461E-02   -0.21859E+00    96   0.134E+01    0.371E-01
DAV:   2    -0.356422069406E+02   -0.10802E-02   -0.24358E-02   112   0.135E+00    0.240E-01
DAV:   3    -0.356421626626E+02    0.44278E-04   -0.12846E-03   112   0.366E-01    0.607E-02
DAV:   4    -0.356422882155E+02   -0.12555E-03   -0.30022E-04   116   0.137E-01    0.253E-02
DAV:   5    -0.356423091800E+02   -0.20964E-04   -0.19338E-05    64   0.451E-02    0.806E-03
DAV:   6    -0.356423325405E+02   -0.23361E-04   -0.77236E-06    80   0.233E-02
   6 F= -.35642333E+02 E0= -.35642333E+02  d E =0.578790E-04
damped:  g(F)=  0.000E+00 g(S)=  0.000E+00 dE (1.order)= 0.000E+00
 bond charge predicted
       N       E                     dE             d eps       ncg     rms          rms(c)
DAV:   1    -0.356409419178E+02    0.13673E-02   -0.24849E+00    96   0.143E+01    0.400E-01
DAV:   2    -0.356421489856E+02   -0.12071E-02   -0.27433E-02   112   0.143E+00    0.257E-01
DAV:   3    -0.356421401092E+02    0.88765E-05   -0.15158E-03   112   0.391E-01    0.647E-02
DAV:   4    -0.356422700168E+02   -0.12991E-03   -0.32173E-04   120   0.144E-01    0.270E-02
DAV:   5    -0.356422919666E+02   -0.21950E-04   -0.18041E-05    64   0.435E-02    0.110E-02
DAV:   6    -0.356423225329E+02   -0.30566E-04   -0.10097E-05    80   0.272E-02
   7 F= -.35642323E+02 E0= -.35642323E+02  d E =0.100077E-04
damped:  g(F)=  0.000E+00 g(S)=  0.000E+00 dE (1.order)= 0.000E+00
 bond charge predicted
       N       E                     dE             d eps       ncg     rms          rms(c)
DAV:   1    -0.356405622238E+02    0.17297E-02   -0.31145E+00    96   0.161E+01    0.456E-01
DAV:   2    -0.356420648461E+02   -0.15026E-02   -0.34368E-02   112   0.160E+00    0.291E-01
DAV:   3    -0.356420765194E+02   -0.11673E-04   -0.19241E-03   112   0.438E-01    0.733E-02
DAV:   4    -0.356422217086E+02   -0.14519E-03   -0.38870E-04   112   0.160E-01    0.300E-02
DAV:   5    -0.356422454945E+02   -0.23786E-04   -0.19807E-05    80   0.458E-02    0.137E-02
DAV:   6    -0.356422823332E+02   -0.36839E-04   -0.13256E-05    80   0.318E-02
   8 F= -.35642282E+02 E0= -.35642282E+02  d E =0.401997E-04
damped:  g(F)=  0.000E+00 g(S)=  0.000E+00 dE (1.order)= 0.000E+00
 bond charge predicted
       N       E                     dE             d eps       ncg     rms          rms(c)
DAV:   1    -0.356423884419E+02   -0.14295E-03   -0.78024E-04   112   0.271E-01    0.116E-02
DAV:   2    -0.356424044695E+02   -0.16028E-04   -0.17081E-05    80   0.380E-02    0.557E-03
DAV:   3    -0.356424223736E+02   -0.17904E-04   -0.48439E-06    80   0.208E-02    0.258E-03
DAV:   4    -0.356424435976E+02   -0.21224E-04   -0.24296E-06    80   0.132E-02    0.118E-03
DAV:   5    -0.356424618706E+02   -0.18273E-04   -0.96410E-07    80   0.703E-03    0.724E-04
DAV:   6    -0.356424774150E+02   -0.15544E-04   -0.72217E-07    80   0.483E-03
   9 F= -.35642477E+02 E0= -.35642477E+02  d E =-.195082E-03
damped:  g(F)=  0.000E+00 g(S)=  0.000E+00 dE (1.order)= 0.000E+00
 bond charge predicted
       N       E                     dE             d eps       ncg     rms          rms(c)
DAV:   1    -0.356425880818E+02   -0.12621E-03   -0.17010E-03   112   0.402E-01    0.150E-02
DAV:   2    -0.356425897985E+02   -0.17167E-05   -0.32348E-05    96   0.531E-02    0.718E-03
DAV:   3    -0.356425934441E+02   -0.36457E-05   -0.90681E-06    64   0.283E-02    0.303E-03
DAV:   4    -0.356425977952E+02   -0.43510E-05   -0.29146E-06    88   0.157E-02    0.132E-03
DAV:   5    -0.356426013058E+02   -0.35106E-05   -0.64162E-07    64   0.723E-03    0.670E-04
DAV:   6    -0.356426040868E+02   -0.27811E-05   -0.19428E-07    64   0.370E-03
  10 F= -.35642604E+02 E0= -.35642604E+02  d E =-.126672E-03
damped:  g(F)=  0.000E+00 g(S)=  0.000E+00 dE (1.order)= 0.000E+00
 bond charge predicted
       N       E                     dE             d eps       ncg     rms          rms(c)
DAV:   1    -0.356427185456E+02   -0.11724E-03   -0.17090E-03    96   0.396E-01    0.859E-03
DAV:   2    -0.356427194731E+02   -0.92757E-06   -0.22024E-05    72   0.424E-02    0.504E-03
DAV:   3    -0.356427209044E+02   -0.14313E-05   -0.53370E-06    80   0.204E-02    0.247E-03
DAV:   4    -0.356427221797E+02   -0.12752E-05   -0.12688E-06    64   0.102E-02    0.130E-03
DAV:   5    -0.356427235185E+02   -0.13388E-05   -0.28662E-07    72   0.493E-03    0.290E-04
DAV:   6    -0.356427240626E+02   -0.54412E-06   -0.95990E-08    48   0.237E-03
  11 F= -.35642724E+02 E0= -.35642724E+02  d E =-.119976E-03
damped:  g(F)=  0.000E+00 g(S)=  0.000E+00 dE (1.order)= 0.000E+00
 bond charge predicted
       N       E                     dE             d eps       ncg     rms          rms(c)
DAV:   1    -0.356428653073E+02   -0.14179E-03   -0.24764E-03    96   0.481E-01    0.117E-02
DAV:   2    -0.356428660760E+02   -0.76869E-06   -0.31014E-05    64   0.517E-02    0.688E-03
DAV:   3    -0.356428664029E+02   -0.32685E-06   -0.51721E-06    76   0.211E-02    0.336E-03
DAV:   4    -0.356428670473E+02   -0.64444E-06   -0.17165E-06    80   0.122E-02    0.121E-03
DAV:   5    -0.356428674431E+02   -0.39576E-06   -0.34929E-07    68   0.522E-03    0.428E-04
DAV:   6    -0.356428677380E+02   -0.29494E-06   -0.10236E-07    48   0.230E-03
  12 F= -.35642868E+02 E0= -.35642868E+02  d E =-.143675E-03
damped:  g(F)=  0.000E+00 g(S)=  0.000E+00 dE (1.order)= 0.000E+00
 bond charge predicted
       N       E                     dE             d eps       ncg     rms          rms(c)
DAV:   1    -0.356429769257E+02   -0.10948E-03   -0.34664E-03    96   0.572E-01    0.163E-02
DAV:   2    -0.356429767066E+02    0.21914E-06   -0.48700E-05    88   0.649E-02    0.909E-03
DAV:   3    -0.356429763734E+02    0.33321E-06   -0.81355E-06    80   0.271E-02    0.452E-03
DAV:   4    -0.356429767226E+02   -0.34928E-06   -0.31482E-06    80   0.167E-02    0.147E-03
DAV:   5    -0.356429769228E+02   -0.20019E-06   -0.61068E-07    56   0.716E-03    0.550E-04
DAV:   6    -0.356429770538E+02   -0.13098E-06   -0.13941E-07    48   0.292E-03
  13 F= -.35642977E+02 E0= -.35642977E+02  d E =-.109316E-03
damped:  g(F)=  0.000E+00 g(S)=  0.000E+00 dE (1.order)= 0.000E+00
 bond charge predicted
       N       E                     dE             d eps       ncg     rms          rms(c)
DAV:   1    -0.356430500998E+02   -0.73177E-04   -0.33909E-03    96   0.556E-01    0.134E-02
DAV:   2    -0.356430504356E+02   -0.33574E-06   -0.38113E-05    64   0.567E-02    0.811E-03
DAV:   3    -0.356430507578E+02   -0.32229E-06   -0.77687E-06    64   0.246E-02    0.339E-03
DAV:   4    -0.356430511183E+02   -0.36050E-06   -0.18743E-06    48   0.124E-02    0.148E-03
DAV:   5    -0.356430513258E+02   -0.20741E-06   -0.44097E-07    48   0.615E-03    0.291E-04
DAV:   6    -0.356430514606E+02   -0.13488E-06   -0.15188E-07    48   0.301E-03
  14 F= -.35643051E+02 E0= -.35643051E+02  d E =-.744068E-04
damped:  g(F)=  0.000E+00 g(S)=  0.000E+00 dE (1.order)= 0.000E+00
 bond charge predicted
       N       E                     dE             d eps       ncg     rms          rms(c)
DAV:   1    -0.356431253543E+02   -0.74029E-04   -0.54816E-03    96   0.702E-01    0.190E-02
DAV:   2    -0.356431242645E+02    0.10898E-05   -0.58951E-05    64   0.726E-02    0.118E-02
DAV:   3    -0.356431251799E+02   -0.91535E-06   -0.20846E-05    80   0.412E-02    0.399E-03
DAV:   4    -0.356431257095E+02   -0.52965E-06   -0.45942E-06    48   0.196E-02    0.271E-03
DAV:   5    -0.356431258220E+02   -0.11247E-06   -0.89600E-07    60   0.103E-02    0.595E-04
DAV:   6    -0.356431259930E+02   -0.17103E-06   -0.31843E-07    48   0.440E-03
  15 F= -.35643126E+02 E0= -.35643126E+02  d E =-.745324E-04
damped:  g(F)=  0.000E+00 g(S)=  0.000E+00 dE (1.order)= 0.000E+00
 bond charge predicted
       N       E                     dE             d eps       ncg     rms          rms(c)
DAV:   1    -0.356431485660E+02   -0.22744E-04   -0.11271E-02    96   0.988E-01    0.290E-02
DAV:   2    -0.356431460521E+02    0.25139E-05   -0.11655E-04    64   0.103E-01    0.180E-02
DAV:   3    -0.356431474985E+02   -0.14463E-05   -0.39541E-05    88   0.583E-02    0.570E-03
DAV:   4    -0.356431484989E+02   -0.10004E-05   -0.90147E-06    48   0.273E-02    0.380E-03
DAV:   5    -0.356431485995E+02   -0.10058E-06   -0.16608E-06    64   0.136E-02    0.120E-03
DAV:   6    -0.356431489584E+02   -0.35896E-06   -0.82655E-07    48   0.723E-03
  16 F= -.35643149E+02 E0= -.35643149E+02  d E =-.229654E-04
damped:  g(F)=  0.000E+00 g(S)=  0.000E+00 dE (1.order)= 0.000E+00
 bond charge predicted
       N       E                     dE             d eps       ncg     rms          rms(c)
DAV:   1    -0.356431251097E+02    0.23490E-04   -0.24289E-02    96   0.143E+00    0.410E-02
DAV:   2    -0.356431311234E+02   -0.60137E-05   -0.27111E-04   112   0.141E-01    0.261E-02
DAV:   3    -0.356431325542E+02   -0.14308E-05   -0.18002E-05    64   0.432E-02    0.683E-03
DAV:   4    -0.356431336634E+02   -0.11092E-05   -0.46749E-06    52   0.194E-02    0.269E-03
DAV:   5    -0.356431340815E+02   -0.41810E-06   -0.81306E-07    60   0.829E-03    0.114E-03
DAV:   6    -0.356431346439E+02   -0.56242E-06   -0.34937E-07    52   0.471E-03
  17 F= -.35643135E+02 E0= -.35643135E+02  d E =0.143145E-04
damped:  g(F)=  0.000E+00 g(S)=  0.000E+00 dE (1.order)= 0.000E+00
 bond charge predicted
       N       E                     dE             d eps       ncg     rms          rms(c)
DAV:   1    -0.356430682394E+02    0.65842E-04   -0.51294E-02    96   0.206E+00    0.590E-02
DAV:   2    -0.356430870284E+02   -0.18789E-04   -0.62208E-04   112   0.215E-01    0.378E-02
DAV:   3    -0.356430867230E+02    0.30544E-06   -0.29678E-05    80   0.582E-02    0.125E-02
DAV:   4    -0.356430901412E+02   -0.34183E-05   -0.13145E-05    96   0.316E-02    0.377E-03
DAV:   5    -0.356430910565E+02   -0.91530E-06   -0.22657E-06    56   0.138E-02    0.174E-03
DAV:   6    -0.356430919825E+02   -0.92598E-06   -0.49377E-07    56   0.599E-03
  18 F= -.35643092E+02 E0= -.35643092E+02  d E =0.426614E-04
damped:  g(F)=  0.000E+00 g(S)=  0.000E+00 dE (1.order)= 0.000E+00
 bond charge predicted
       N       E                     dE             d eps       ncg     rms          rms(c)
DAV:   1    -0.356430275428E+02    0.63514E-04   -0.92189E-02    96   0.275E+00    0.774E-02
DAV:   2    -0.356430618799E+02   -0.34337E-04   -0.10319E-03   112   0.276E-01    0.497E-02
DAV:   3    -0.356430667802E+02   -0.49004E-05   -0.50193E-05    80   0.757E-02    0.134E-02
DAV:   4    -0.356430716431E+02   -0.48629E-05   -0.17771E-05    96   0.359E-02    0.467E-03
DAV:   5    -0.356430730335E+02   -0.13905E-05   -0.28963E-06    60   0.156E-02    0.190E-03
DAV:   6    -0.356430745525E+02   -0.15190E-05   -0.74899E-07    52   0.713E-03
  19 F= -.35643075E+02 E0= -.35643075E+02  d E =0.174300E-04
damped:  g(F)=  0.000E+00 g(S)=  0.000E+00 dE (1.order)= 0.000E+00
 bond charge predicted
       N       E                     dE             d eps       ncg     rms          rms(c)
DAV:   1    -0.356430073881E+02    0.65645E-04   -0.15944E-01    96   0.361E+00    0.101E-01
DAV:   2    -0.356430694573E+02   -0.62069E-04   -0.18202E-03   112   0.368E-01    0.651E-02
DAV:   3    -0.356430753035E+02   -0.58462E-05   -0.89161E-05    80   0.100E-01    0.191E-02
DAV:   4    -0.356430848386E+02   -0.95350E-05   -0.33824E-05    96   0.499E-02    0.633E-03
DAV:   5    -0.356430872057E+02   -0.23672E-05   -0.56167E-06    64   0.223E-02    0.235E-03
DAV:   6    -0.356430896325E+02   -0.24268E-05   -0.13746E-06    48   0.965E-03
  20 F= -.35643090E+02 E0= -.35643090E+02  d E =-.150799E-04
damped:  g(F)=  0.000E+00 g(S)=  0.000E+00 dE (1.order)= 0.000E+00
 bond charge predicted
       N       E                     dE             d eps       ncg     rms          rms(c)
DAV:   1    -0.356429555499E+02    0.13166E-03   -0.25532E-01    96   0.459E+00    0.126E-01
DAV:   2    -0.356430692409E+02   -0.11369E-03   -0.31541E-03   112   0.485E-01    0.824E-02
DAV:   3    -0.356430611105E+02    0.81304E-05   -0.16129E-04    80   0.143E-01    0.284E-02
DAV:   4    -0.356430827384E+02   -0.21628E-04   -0.93028E-05    96   0.850E-02    0.106E-02
DAV:   5    -0.356430854148E+02   -0.26764E-05   -0.15906E-05    80   0.406E-02    0.475E-03
DAV:   6    -0.356430897184E+02   -0.43036E-05   -0.59006E-06    64   0.205E-02
  21 F= -.35643090E+02 E0= -.35643090E+02  d E =-.859176E-07
damped:  g(F)=  0.000E+00 g(S)=  0.000E+00 dE (1.order)= 0.000E+00
 bond charge predicted
       N       E                     dE             d eps       ncg     rms          rms(c)
DAV:   1    -0.356426295872E+02    0.45583E-03   -0.35847E-01    96   0.548E+00    0.154E-01
DAV:   2    -0.356427438620E+02   -0.11427E-03   -0.47255E-03   112   0.597E-01    0.103E-01
DAV:   3    -0.356427133598E+02    0.30502E-04   -0.35650E-04   128   0.185E-01    0.413E-02
DAV:   4    -0.356427438240E+02   -0.30464E-04   -0.75221E-05    96   0.827E-02    0.128E-02
DAV:   5    -0.356427484515E+02   -0.46275E-05   -0.14520E-05    64   0.381E-02    0.478E-03
DAV:   6    -0.356427539469E+02   -0.54954E-05   -0.43317E-06    64   0.178E-02
  22 F= -.35642754E+02 E0= -.35642754E+02  d E =0.335771E-03
damped:  g(F)=  0.000E+00 g(S)=  0.000E+00 dE (1.order)= 0.000E+00
 bond charge predicted
       N       E                     dE             d eps       ncg     rms          rms(c)
DAV:   1    -0.356432092294E+02   -0.46078E-03   -0.11230E-02    96   0.101E+00    0.555E-02
DAV:   2    -0.356431870183E+02    0.22211E-04   -0.30240E-04   112   0.158E-01    0.249E-02
DAV:   3    -0.356431787507E+02    0.82676E-05   -0.39805E-05    96   0.661E-02    0.123E-02
DAV:   4    -0.356431831541E+02   -0.44033E-05   -0.29426E-05    64   0.532E-02    0.425E-03
DAV:   5    -0.356431858657E+02   -0.27117E-05   -0.51020E-06    96   0.221E-02    0.218E-03
DAV:   6    -0.356431883718E+02   -0.25061E-05   -0.99781E-07    64   0.986E-03
  23 F= -.35643188E+02 E0= -.35643188E+02  d E =-.434425E-03
damped:  g(F)=  0.000E+00 g(S)=  0.000E+00 dE (1.order)= 0.000E+00
 bond charge predicted
       N       E                     dE             d eps       ncg     rms          rms(c)
DAV:   1    -0.356430180910E+02    0.16777E-03   -0.15722E-02    96   0.119E+00    0.646E-02
DAV:   2    -0.356429829797E+02    0.35111E-04   -0.43539E-04   112   0.187E-01    0.291E-02
DAV:   3    -0.356429678186E+02    0.15161E-04   -0.54225E-05    96   0.769E-02    0.144E-02
DAV:   4    -0.356429680949E+02   -0.27631E-06   -0.40894E-05    68   0.626E-02    0.499E-03
DAV:   5    -0.356429690317E+02   -0.93686E-06   -0.69449E-06    96   0.261E-02    0.259E-03
DAV:   6    -0.356429700170E+02   -0.98529E-06   -0.13370E-06    64   0.113E-02
  24 F= -.35642970E+02 E0= -.35642970E+02  d E =0.218355E-03
damped:  g(F)=  0.000E+00 g(S)=  0.000E+00 dE (1.order)= 0.000E+00
 bond charge predicted
       N       E                     dE             d eps       ncg     rms          rms(c)
DAV:   1    -0.356430589658E+02   -0.89934E-04   -0.38718E-04    96   0.187E-01    0.101E-02
DAV:   2    -0.356430589327E+02    0.33116E-07   -0.88478E-06    64   0.297E-02    0.464E-03
DAV:   3    -0.356430595490E+02   -0.61632E-06   -0.25687E-06    48   0.160E-02    0.203E-03
DAV:   4    -0.356430606214E+02   -0.10724E-05   -0.11998E-06    96   0.102E-02    0.717E-04
DAV:   5    -0.356430612990E+02   -0.67758E-06   -0.25348E-07    48   0.466E-03    0.336E-04
DAV:   6    -0.356430618098E+02   -0.51081E-06   -0.76024E-08    48   0.214E-03
  25 F= -.35643062E+02 E0= -.35643062E+02  d E =-.917928E-04
damped:  g(F)=  0.000E+00 g(S)=  0.000E+00 dE (1.order)= 0.000E+00
 bond charge predicted
       N       E                     dE             d eps       ncg     rms          rms(c)
DAV:   1    -0.356431746666E+02   -0.11337E-03   -0.12603E-03   112   0.337E-01    0.182E-02
DAV:   2    -0.356431716717E+02    0.29949E-05   -0.29376E-05    72   0.535E-02    0.835E-03
DAV:   3    -0.356431711301E+02    0.54162E-06   -0.84581E-06    96   0.291E-02    0.361E-03
DAV:   4    -0.356431716513E+02   -0.52122E-06   -0.38586E-06    64   0.186E-02    0.127E-03
DAV:   5    -0.356431719005E+02   -0.24920E-06   -0.76050E-07    96   0.830E-03    0.626E-04
DAV:   6    -0.356431720499E+02   -0.14939E-06   -0.15348E-07    64   0.358E-03
  26 F= -.35643172E+02 E0= -.35643172E+02  d E =-.110240E-03
damped:  g(F)=  0.000E+00 g(S)=  0.000E+00 dE (1.order)= 0.000E+00
 bond charge predicted
       N       E                     dE             d eps       ncg     rms          rms(c)
DAV:   1    -0.356432280014E+02   -0.56101E-04   -0.19531E-03    96   0.420E-01    0.224E-02
DAV:   2    -0.356432225725E+02    0.54290E-05   -0.46151E-05    64   0.668E-02    0.104E-02
DAV:   3    -0.356432212132E+02    0.13593E-05   -0.13146E-05    96   0.362E-02    0.447E-03
DAV:   4    -0.356432214467E+02   -0.23354E-06   -0.59693E-06    64   0.231E-02    0.158E-03
DAV:   5    -0.356432215094E+02   -0.62630E-07   -0.11495E-06    60   0.103E-02    0.803E-04
DAV:   6    -0.356432215485E+02   -0.39132E-07   -0.21676E-07    52   0.446E-03
  27 F= -.35643222E+02 E0= -.35643222E+02  d E =-.494986E-04
damped:  g(F)=  0.000E+00 g(S)=  0.000E+00 dE (1.order)= 0.000E+00
 bond charge predicted
       N       E                     dE             d eps       ncg     rms          rms(c)
DAV:   1    -0.356431906908E+02    0.30819E-04   -0.16361E-03    96   0.386E-01    0.199E-02
DAV:   2    -0.356431864321E+02    0.42587E-05   -0.39750E-05    64   0.613E-02    0.936E-03
DAV:   3    -0.356431852926E+02    0.11395E-05   -0.10869E-05    48   0.327E-02    0.402E-03
DAV:   4    -0.356431854485E+02   -0.15584E-06   -0.49131E-06    48   0.209E-02    0.148E-03
DAV:   5    -0.356431854989E+02   -0.50457E-07   -0.93734E-07    48   0.941E-03    0.798E-04
DAV:   6    -0.356431855756E+02   -0.76686E-07   -0.19933E-07    48   0.422E-03
  28 F= -.35643186E+02 E0= -.35643186E+02  d E =0.359729E-04
damped:  g(F)=  0.000E+00 g(S)=  0.000E+00 dE (1.order)= 0.000E+00
 bond charge predicted
       N       E                     dE             d eps       ncg     rms          rms(c)
DAV:   1    -0.356431894208E+02   -0.39219E-05   -0.37287E-06    48   0.189E-02    0.850E-04
DAV:   2    -0.356431895567E+02   -0.13587E-06   -0.25916E-07    48   0.469E-03    0.467E-04
DAV:   3    -0.356431896932E+02   -0.13648E-06   -0.52749E-08    48   0.162E-03    0.290E-04
DAV:   4    -0.356431899551E+02   -0.26189E-06   -0.47033E-08    64   0.134E-03    0.102E-04
DAV:   5    -0.356431900305E+02   -0.75485E-07   -0.31933E-08    48   0.626E-04    0.793E-05
DAV:   6    -0.356431901840E+02   -0.15342E-06   -0.32534E-08    48   0.427E-04
  29 F= -.35643190E+02 E0= -.35643190E+02  d E =-.460835E-05
damped:  g(F)=  0.000E+00 g(S)=  0.000E+00 dE (1.order)= 0.000E+00
 bond charge predicted
       N       E                     dE             d eps       ncg     rms          rms(c)
DAV:   1    -0.356431969890E+02   -0.69584E-05   -0.14406E-05    48   0.370E-02    0.164E-03
DAV:   2    -0.356431970885E+02   -0.99512E-07   -0.92267E-07    48   0.918E-03    0.878E-04
DAV:   3    -0.356431971392E+02   -0.50737E-07   -0.13082E-07    48   0.306E-03    0.564E-04
DAV:   4    -0.356431972562E+02   -0.11697E-06   -0.10472E-07    68   0.285E-03    0.185E-04
DAV:   5    -0.356431972892E+02   -0.32993E-07   -0.51677E-08    48   0.134E-03    0.152E-04
DAV:   6    -0.356431973224E+02   -0.33231E-07   -0.38154E-08    48   0.595E-04
  30 F= -.35643197E+02 E0= -.35643197E+02  d E =-.713843E-05
damped:  g(F)=  0.000E+00 g(S)=  0.000E+00 dE (1.order)= 0.000E+00
 bond charge predicted
       N       E                     dE             d eps       ncg     rms          rms(c)
DAV:   1    -0.356432057357E+02   -0.84465E-05   -0.29862E-05    60   0.533E-02    0.236E-03
DAV:   2    -0.356432058134E+02   -0.77673E-07   -0.19010E-06    64   0.133E-02    0.127E-03
DAV:   3    -0.356432058088E+02    0.46031E-08   -0.24435E-07    48   0.443E-03    0.819E-04
DAV:   4    -0.356432058327E+02   -0.23904E-07   -0.18853E-07    84   0.416E-03    0.268E-04
DAV:   5    -0.356432058449E+02   -0.12173E-07   -0.77607E-08    48   0.196E-03    0.221E-04
DAV:   6    -0.356432058549E+02   -0.10013E-07   -0.47737E-08    48   0.854E-04
  31 F= -.35643206E+02 E0= -.35643206E+02  d E =-.853247E-05
damped:  g(F)=  0.000E+00 g(S)=  0.000E+00 dE (1.order)= 0.000E+00
 bond charge predicted
       N       E                     dE             d eps       ncg     rms          rms(c)
DAV:   1    -0.356432142219E+02   -0.83771E-05   -0.46931E-05    48   0.669E-02    0.295E-03
DAV:   2    -0.356432142879E+02   -0.65978E-07   -0.29746E-06    64   0.167E-02    0.159E-03
DAV:   3    -0.356432142422E+02    0.45748E-07   -0.36742E-07    48   0.557E-03    0.103E-03
DAV:   4    -0.356432142144E+02    0.27732E-07   -0.27757E-07    72   0.524E-03    0.338E-04
DAV:   5    -0.356432142205E+02   -0.60161E-08   -0.10169E-07    48   0.247E-03    0.278E-04
DAV:   6    -0.356432142263E+02   -0.58769E-08   -0.54056E-08    48   0.108E-03
  32 F= -.35643214E+02 E0= -.35643214E+02  d E =-.837146E-05
damped:  g(F)=  0.000E+00 g(S)=  0.000E+00 dE (1.order)= 0.000E+00
 bond charge predicted
       N       E                     dE             d eps       ncg     rms          rms(c)
DAV:   1    -0.356432209994E+02   -0.67789E-05   -0.62265E-05    48   0.770E-02    0.341E-03
DAV:   2    -0.356432210875E+02   -0.88159E-07   -0.39329E-06    64   0.192E-02    0.184E-03
DAV:   3    -0.356432210253E+02    0.62267E-07   -0.47435E-07    48   0.643E-03    0.118E-03
DAV:   4    -0.356432209868E+02    0.38454E-07   -0.35621E-07    48   0.605E-03    0.392E-04
DAV:   5    -0.356432209942E+02   -0.73912E-08   -0.12103E-07    48   0.286E-03    0.321E-04
DAV:   6    -0.356432210007E+02   -0.65563E-08   -0.57573E-08    48   0.124E-03
  33 F= -.35643221E+02 E0= -.35643221E+02  d E =-.677441E-05
damped:  g(F)=  0.000E+00 g(S)=  0.000E+00 dE (1.order)= 0.000E+00
 bond charge predicted
       N       E                     dE             d eps       ncg     rms          rms(c)
DAV:   1    -0.356432248946E+02   -0.39004E-05   -0.71891E-05    48   0.828E-02    0.364E-03
DAV:   2    -0.356432250134E+02   -0.11880E-06   -0.45310E-06    64   0.206E-02    0.197E-03
DAV:   3    -0.356432249461E+02    0.67232E-07   -0.54224E-07    48   0.692E-03    0.127E-03
DAV:   4    -0.356432249066E+02    0.39547E-07   -0.40233E-07    48   0.649E-03    0.421E-04
DAV:   5    -0.356432249157E+02   -0.90813E-08   -0.13208E-07    48   0.306E-03    0.346E-04
DAV:   6    -0.356432249236E+02   -0.78894E-08   -0.59014E-08    48   0.134E-03
  34 F= -.35643225E+02 E0= -.35643225E+02  d E =-.392281E-05
damped:  g(F)=  0.000E+00 g(S)=  0.000E+00 dE (1.order)= 0.000E+00
 bond charge predicted
       N       E                     dE             d eps       ncg     rms          rms(c)
DAV:   1    -0.356432253003E+02   -0.38463E-06   -0.85258E-05    48   0.904E-02    0.389E-03
DAV:   2    -0.356432254594E+02   -0.15913E-06   -0.53407E-06    48   0.225E-02    0.212E-03
DAV:   3    -0.356432253871E+02    0.72280E-07   -0.63821E-07    48   0.754E-03    0.137E-03
DAV:   4    -0.356432253451E+02    0.42025E-07   -0.45578E-07    48   0.696E-03    0.448E-04
DAV:   5    -0.356432253561E+02   -0.10951E-07   -0.14584E-07    48   0.327E-03    0.377E-04
DAV:   6    -0.356432253652E+02   -0.91425E-08   -0.61349E-08    48   0.144E-03
  35 F= -.35643225E+02 E0= -.35643225E+02  d E =-.441662E-06
damped:  g(F)=  0.000E+00 g(S)=  0.000E+00 dE (1.order)= 0.000E+00
 bond charge predicted
       N       E                     dE             d eps       ncg     rms          rms(c)
DAV:   1    -0.356432225254E+02    0.28307E-05   -0.73462E-05    48   0.842E-02    0.344E-03
DAV:   2    -0.356432226708E+02   -0.14545E-06   -0.45415E-06    48   0.209E-02    0.192E-03
DAV:   3    -0.356432226177E+02    0.53112E-07   -0.55934E-07    48   0.700E-03    0.124E-03
DAV:   4    -0.356432225898E+02    0.27975E-07   -0.37355E-07    48   0.622E-03    0.395E-04
DAV:   5    -0.356432226025E+02   -0.12772E-07   -0.12654E-07    48   0.290E-03    0.343E-04
DAV:   6    -0.356432226137E+02   -0.11168E-07   -0.57870E-08    48   0.131E-03
  36 F= -.35643223E+02 E0= -.35643223E+02  d E =0.275152E-05
damped:  g(F)=  0.000E+00 g(S)=  0.000E+00 dE (1.order)= 0.000E+00
 bond charge predicted
       N       E                     dE             d eps       ncg     rms          rms(c)
DAV:   1    -0.356432228120E+02   -0.20947E-06   -0.92503E-08    48   0.227E-03    0.693E-05
DAV:   2    -0.356432228312E+02   -0.19195E-07   -0.45182E-08    48   0.591E-04    0.480E-05
DAV:   3    -0.356432228511E+02   -0.19891E-07   -0.42750E-08    48   0.231E-04    0.360E-05
DAV:   4    -0.356432228976E+02   -0.46537E-07   -0.43880E-08    52   0.152E-04    0.115E-05
DAV:   5    -0.356432229201E+02   -0.22454E-07   -0.44126E-08    48   0.964E-05    0.100E-05
DAV:   6    -0.356432229558E+02   -0.35724E-07   -0.44486E-08    60   0.909E-05
  37 F= -.35643223E+02 E0= -.35643223E+02  d E =-.342099E-06
damped:  g(F)=  0.000E+00 g(S)=  0.000E+00 dE (1.order)= 0.000E+00
 bond charge predicted
       N       E                     dE             d eps       ncg     rms          rms(c)
DAV:   1    -0.356432233036E+02   -0.38349E-06   -0.26528E-07    52   0.463E-03    0.202E-04
DAV:   2    -0.356432233128E+02   -0.92218E-08   -0.56802E-08    48   0.115E-03    0.106E-04
DAV:   3    -0.356432233183E+02   -0.55420E-08   -0.44565E-08    48   0.375E-04    0.675E-05
DAV:   4    -0.356432233276E+02   -0.92953E-08   -0.43673E-08    48   0.340E-04    0.200E-05
DAV:   5    -0.356432233299E+02   -0.22760E-08   -0.42869E-08    48   0.161E-04    0.170E-05
DAV:   6    -0.356432233320E+02   -0.21091E-08   -0.42560E-08    48   0.692E-05
  38 F= -.35643223E+02 E0= -.35643223E+02  d E =-.376209E-06
damped:  g(F)=  0.000E+00 g(S)=  0.000E+00 dE (1.order)= 0.000E+00
 bond charge predicted
       N       E                     dE             d eps       ncg     rms          rms(c)
DAV:   1    -0.356432237971E+02   -0.46718E-06   -0.52640E-07    48   0.684E-03    0.301E-04
DAV:   2    -0.356432238030E+02   -0.59417E-08   -0.71588E-08    48   0.170E-03    0.158E-04
DAV:   3    -0.356432238046E+02   -0.15559E-08   -0.45261E-08    48   0.556E-04    0.101E-04
DAV:   4    -0.356432238068E+02   -0.22042E-08   -0.44064E-08    48   0.506E-04    0.303E-05
DAV:   5    -0.356432238070E+02   -0.21350E-09   -0.42440E-08    48   0.241E-04    0.255E-05
DAV:   6    -0.356432238074E+02   -0.45179E-09   -0.41913E-08    48   0.102E-04
  39 F= -.35643224E+02 E0= -.35643224E+02  d E =-.475435E-06
damped:  g(F)=  0.000E+00 g(S)=  0.000E+00 dE (1.order)= 0.000E+00
 bond charge predicted
       N       E                     dE             d eps       ncg     rms          rms(c)
DAV:   1    -0.356432243770E+02   -0.57006E-06   -0.86698E-07    48   0.893E-03    0.394E-04
DAV:   2    -0.356432243835E+02   -0.64390E-08   -0.91827E-08    48   0.222E-03    0.206E-04
DAV:   3    -0.356432243840E+02   -0.54592E-09   -0.47042E-08    48   0.727E-04    0.132E-04
DAV:   4    -0.356432243845E+02   -0.45475E-09   -0.45255E-08    48   0.663E-04    0.398E-05
DAV:   5    -0.356432243846E+02   -0.68894E-10   -0.42506E-08    48   0.317E-04    0.334E-05
DAV:   6    -0.356432243844E+02    0.10687E-09   -0.41666E-08    48   0.134E-04
  40 F= -.35643224E+02 E0= -.35643224E+02  d E =-.577009E-06
damped:  g(F)=  0.000E+00 g(S)=  0.000E+00 dE (1.order)= 0.000E+00
 bond charge predicted
       N       E                     dE             d eps       ncg     rms          rms(c)
DAV:   1    -0.356432250277E+02   -0.64313E-06   -0.12624E-06    48   0.109E-02    0.478E-04
DAV:   2    -0.356432250352E+02   -0.75119E-08   -0.11561E-07    48   0.270E-03    0.251E-04
DAV:   3    -0.356432250357E+02   -0.45452E-09   -0.49397E-08    48   0.884E-04    0.161E-04
DAV:   4    -0.356432250360E+02   -0.32765E-09   -0.46853E-08    48   0.808E-04    0.486E-05
DAV:   5    -0.356432250359E+02    0.75033E-10   -0.42772E-08    48   0.386E-04    0.407E-05
DAV:   6    -0.356432250358E+02    0.68212E-10   -0.41503E-08    48   0.163E-04
  41 F= -.35643225E+02 E0= -.35643225E+02  d E =-.651391E-06
damped:  g(F)=  0.000E+00 g(S)=  0.000E+00 dE (1.order)= 0.000E+00
 bond charge predicted
       N       E                     dE             d eps       ncg     rms          rms(c)
DAV:   1    -0.356432257155E+02   -0.67956E-06   -0.16840E-06    48   0.126E-02    0.553E-04
DAV:   2    -0.356432257245E+02   -0.90220E-08   -0.14088E-07    48   0.313E-03    0.291E-04
DAV:   3    -0.356432257249E+02   -0.40745E-09   -0.51931E-08    48   0.102E-03    0.187E-04
DAV:   4    -0.356432257252E+02   -0.30332E-09   -0.48569E-08    48   0.937E-04    0.564E-05
DAV:   5    -0.356432257251E+02    0.75488E-10   -0.43048E-08    48   0.448E-04    0.473E-05
DAV:   6    -0.356432257251E+02   -0.77307E-11   -0.41486E-08    48   0.190E-04
  42 F= -.35643226E+02 E0= -.35643226E+02  d E =-.689291E-06
damped:  g(F)=  0.000E+00 g(S)=  0.000E+00 dE (1.order)= 0.000E+00
 bond charge predicted
       N       E                     dE             d eps       ncg     rms          rms(c)
DAV:   1    -0.356432264733E+02   -0.74821E-06   -0.25845E-06    48   0.157E-02    0.682E-04
DAV:   2    -0.356432264859E+02   -0.12549E-07   -0.19481E-07    48   0.388E-03    0.361E-04
DAV:   3    -0.356432264858E+02    0.11687E-09   -0.57555E-08    48   0.127E-03    0.232E-04
DAV:   4    -0.356432264859E+02   -0.15893E-09   -0.52346E-08    48   0.116E-03    0.699E-05
DAV:   5    -0.356432264858E+02    0.96406E-10   -0.43891E-08    48   0.555E-04    0.590E-05
DAV:   6    -0.356432264859E+02   -0.80490E-10   -0.41480E-08    48   0.235E-04
  43 F= -.35643226E+02 E0= -.35643226E+02  d E =-.760778E-06
damped:  g(F)=  0.000E+00 g(S)=  0.000E+00 dE (1.order)= 0.000E+00
 bond charge predicted
       N       E                     dE             d eps       ncg     rms          rms(c)
DAV:   1    -0.356432272518E+02   -0.76595E-06   -0.37762E-06    48   0.190E-02    0.815E-04
DAV:   2    -0.356432272679E+02   -0.16094E-07   -0.26565E-07    48   0.469E-03    0.435E-04
DAV:   3    -0.356432272673E+02    0.57094E-09   -0.64976E-08    48   0.153E-03    0.282E-04
DAV:   4    -0.356432272673E+02    0.18872E-10   -0.57391E-08    48   0.141E-03    0.847E-05
DAV:   5    -0.356432272673E+02    0.26603E-10   -0.45054E-08    48   0.670E-04    0.720E-05
DAV:   6    -0.356432272675E+02   -0.29627E-09   -0.41488E-08    48   0.284E-04
  44 F= -.35643227E+02 E0= -.35643227E+02  d E =-.781644E-06
damped:  g(F)=  0.000E+00 g(S)=  0.000E+00 dE (1.order)= 0.000E+00
 bond charge predicted
       N       E                     dE             d eps       ncg     rms          rms(c)
DAV:   1    -0.356432279789E+02   -0.71166E-06   -0.51541E-06    48   0.223E-02    0.930E-04
DAV:   2    -0.356432279994E+02   -0.20512E-07   -0.34643E-07    48   0.548E-03    0.506E-04
DAV:   3    -0.356432279984E+02    0.10270E-08   -0.73379E-08    48   0.178E-03    0.331E-04
DAV:   4    -0.356432279982E+02    0.21942E-09   -0.62868E-08    48   0.163E-03    0.984E-05
DAV:   5    -0.356432279981E+02    0.51614E-10   -0.46385E-08    48   0.777E-04    0.854E-05
DAV:   6    -0.356432279986E+02   -0.51591E-09   -0.41557E-08    48   0.332E-04
  45 F= -.35643228E+02 E0= -.35643228E+02  d E =-.731094E-06
damped:  g(F)=  0.000E+00 g(S)=  0.000E+00 dE (1.order)= 0.000E+00
 bond charge predicted
       N       E                     dE             d eps       ncg     rms          rms(c)
DAV:   1    -0.356432285770E+02   -0.57887E-06   -0.63640E-06    48   0.249E-02    0.997E-04
DAV:   2    -0.356432286010E+02   -0.24004E-07   -0.41729E-07    48   0.609E-03    0.557E-04
DAV:   3    -0.356432286001E+02    0.93019E-09   -0.80508E-08    48   0.197E-03    0.371E-04
DAV:   4    -0.356432285997E+02    0.35743E-09   -0.66456E-08    48   0.177E-03    0.107E-04
DAV:   5    -0.356432285998E+02   -0.11005E-09   -0.47466E-08    48   0.845E-04    0.954E-05
DAV:   6    -0.356432286006E+02   -0.73692E-09   -0.41590E-08    48   0.366E-04
  46 F= -.35643229E+02 E0= -.35643229E+02  d E =-.601916E-06
damped:  g(F)=  0.000E+00 g(S)=  0.000E+00 dE (1.order)= 0.000E+00
 bond charge predicted
       N       E                     dE             d eps       ncg     rms          rms(c)
DAV:   1    -0.356432290057E+02   -0.40584E-06   -0.70646E-06    48   0.263E-02    0.997E-04
DAV:   2    -0.356432290341E+02   -0.28440E-07   -0.46038E-07    48   0.642E-03    0.575E-04
DAV:   3    -0.356432290337E+02    0.45543E-09   -0.84643E-08    48   0.207E-03    0.391E-04
DAV:   4    -0.356432290334E+02    0.28945E-09   -0.66466E-08    48   0.180E-03    0.108E-04
DAV:   5    -0.356432290337E+02   -0.31878E-09   -0.47699E-08    48   0.854E-04    0.976E-05
DAV:   6    -0.356432290347E+02   -0.99612E-09   -0.41400E-08    48   0.372E-04
  47 F= -.35643229E+02 E0= -.35643229E+02  d E =-.434116E-06
damped:  g(F)=  0.000E+00 g(S)=  0.000E+00 dE (1.order)= 0.000E+00
 bond charge predicted
       N       E                     dE             d eps       ncg     rms          rms(c)
DAV:   1    -0.356432293075E+02   -0.27378E-06   -0.74105E-06    48   0.270E-02    0.938E-04
DAV:   2    -0.356432293400E+02   -0.32531E-07   -0.47424E-07    48   0.651E-03    0.562E-04
DAV:   3    -0.356432293413E+02   -0.12617E-08   -0.86588E-08    48   0.209E-03    0.386E-04
DAV:   4    -0.356432293416E+02   -0.38040E-09   -0.63776E-08    48   0.173E-03    0.102E-04
DAV:   5    -0.356432293421E+02   -0.46202E-09   -0.47136E-08    48   0.813E-04    0.947E-05
DAV:   6    -0.356432293429E+02   -0.82423E-09   -0.41128E-08    48   0.356E-04
  48 F= -.35643229E+02 E0= -.35643229E+02  d E =-.308245E-06
damped:  g(F)=  0.000E+00 g(S)=  0.000E+00 dE (1.order)= 0.000E+00
 bond charge predicted
       N       E                     dE             d eps       ncg     rms          rms(c)
DAV:   1    -0.356432296127E+02   -0.27056E-06   -0.81706E-06    48   0.282E-02    0.854E-04
DAV:   2    -0.356432296496E+02   -0.36900E-07   -0.48400E-07    48   0.665E-03    0.533E-04
DAV:   3    -0.356432296542E+02   -0.46551E-08   -0.89726E-08    48   0.212E-03    0.358E-04
DAV:   4    -0.356432296559E+02   -0.17005E-08   -0.59885E-08    48   0.157E-03    0.874E-05
DAV:   5    -0.356432296564E+02   -0.45702E-09   -0.46066E-08    48   0.721E-04    0.857E-05
DAV:   6    -0.356432296569E+02   -0.48135E-09   -0.40942E-08    48   0.318E-04
  49 F= -.35643230E+02 E0= -.35643230E+02  d E =-.313933E-06
damped:  g(F)=  0.000E+00 g(S)=  0.000E+00 dE (1.order)= 0.000E+00
 bond charge predicted
       N       E                     dE             d eps       ncg     rms          rms(c)
DAV:   1    -0.356432301210E+02   -0.46463E-06   -0.11271E-05    48   0.324E-02    0.870E-04
DAV:   2    -0.356432301686E+02   -0.47574E-07   -0.59228E-07    48   0.751E-03    0.538E-04
DAV:   3    -0.356432301797E+02   -0.11104E-07   -0.10412E-07    48   0.233E-03    0.307E-04
DAV:   4    -0.356432301834E+02   -0.36769E-08   -0.57053E-08    48   0.131E-03    0.718E-05
DAV:   5    -0.356432301833E+02    0.35243E-10   -0.44947E-08    48   0.612E-04    0.673E-05
DAV:   6    -0.356432301835E+02   -0.18736E-09   -0.41068E-08    48   0.303E-04
  50 F= -.35643230E+02 E0= -.35643230E+02  d E =-.526653E-06
damped:  g(F)=  0.000E+00 g(S)=  0.000E+00 dE (1.order)= 0.000E+00
 bond charge predicted
       N       E                     dE             d eps       ncg     rms          rms(c)
DAV:   1    -0.356432310432E+02   -0.85989E-06   -0.21277E-05    48   0.436E-02    0.118E-03
DAV:   2    -0.356432311246E+02   -0.81394E-07   -0.10414E-06    48   0.102E-02    0.685E-04
DAV:   3    -0.356432311471E+02   -0.22510E-07   -0.15794E-07    48   0.309E-03    0.313E-04
DAV:   4    -0.356432311517E+02   -0.45718E-08   -0.67613E-08    48   0.147E-03    0.934E-05
DAV:   5    -0.356432311519E+02   -0.22533E-09   -0.47837E-08    48   0.722E-04    0.604E-05
DAV:   6    -0.356432311521E+02   -0.19531E-09   -0.42212E-08    48   0.409E-04
  51 F= -.35643231E+02 E0= -.35643231E+02  d E =-.968595E-06
damped:  g(F)=  0.000E+00 g(S)=  0.000E+00 dE (1.order)= 0.000E+00
 bond charge predicted
       N       E                     dE             d eps       ncg     rms          rms(c)
DAV:   1    -0.356432324780E+02   -0.13261E-05   -0.48557E-05    48   0.654E-02    0.177E-03
DAV:   2    -0.356432326595E+02   -0.18153E-06   -0.23867E-06    48   0.156E-02    0.105E-03
DAV:   3    -0.356432326997E+02   -0.40197E-07   -0.31503E-07    48   0.475E-03    0.501E-04
DAV:   4    -0.356432327095E+02   -0.97796E-08   -0.10813E-07    48   0.229E-03    0.165E-04
DAV:   5    -0.356432327114E+02   -0.18774E-08   -0.58546E-08    48   0.111E-03    0.111E-04
DAV:   6    -0.356432327124E+02   -0.10184E-08   -0.45677E-08    48   0.670E-04
  52 F= -.35643233E+02 E0= -.35643233E+02  d E =-.156028E-05
damped:  g(F)=  0.000E+00 g(S)=  0.000E+00 dE (1.order)= 0.000E+00
 bond charge predicted
       N       E                     dE             d eps       ncg     rms          rms(c)
DAV:   1    -0.356432343310E+02   -0.16196E-05   -0.11613E-04    48   0.101E-01    0.271E-03
DAV:   2    -0.356432347811E+02   -0.45014E-06   -0.58283E-06    48   0.244E-02    0.164E-03
DAV:   3    -0.356432348620E+02   -0.80881E-07   -0.71602E-07    48   0.746E-03    0.843E-04
DAV:   4    -0.356432348833E+02   -0.21279E-07   -0.21444E-07    48   0.371E-03    0.270E-04
DAV:   5    -0.356432348895E+02   -0.62128E-08   -0.87018E-08    48   0.178E-03    0.203E-04
DAV:   6    -0.356432348937E+02   -0.42389E-08   -0.54966E-08    48   0.109E-03
  53 F= -.35643235E+02 E0= -.35643235E+02  d E =-.218135E-05
damped:  g(F)=  0.000E+00 g(S)=  0.000E+00 dE (1.order)= 0.000E+00
 bond charge predicted
       N       E                     dE             d eps       ncg     rms          rms(c)
DAV:   1    -0.356432372534E+02   -0.23640E-05   -0.28999E-04    96   0.156E-01    0.433E-03
DAV:   2    -0.356432372145E+02    0.38996E-07   -0.31979E-06    64   0.163E-02    0.270E-03
DAV:   3    -0.356432372730E+02   -0.58574E-07   -0.68536E-07    48   0.759E-03    0.722E-04
DAV:   4    -0.356432372960E+02   -0.22981E-07   -0.18827E-07    48   0.345E-03    0.428E-04
DAV:   5    -0.356432373017E+02   -0.56815E-08   -0.68235E-08    48   0.166E-03    0.140E-04
DAV:   6    -0.356432373117E+02   -0.99665E-08   -0.49995E-08    48   0.941E-04
  54 F= -.35643237E+02 E0= -.35643237E+02  d E =-.241793E-05
damped:  g(F)=  0.000E+00 g(S)=  0.000E+00 dE (1.order)= 0.000E+00
 bond charge predicted
       N       E                     dE             d eps       ncg     rms          rms(c)
DAV:   1    -0.356432393660E+02   -0.20643E-05   -0.68324E-04    96   0.238E-01    0.655E-03
DAV:   2    -0.356432393623E+02    0.36888E-08   -0.72943E-06    64   0.246E-02    0.409E-03
DAV:   3    -0.356432395035E+02   -0.14118E-06   -0.14693E-06    48   0.112E-02    0.102E-03
DAV:   4    -0.356432395492E+02   -0.45708E-07   -0.35895E-07    48   0.502E-03    0.602E-04
DAV:   5    -0.356432395602E+02   -0.11030E-07   -0.10444E-07    48   0.243E-03    0.192E-04
DAV:   6    -0.356432395794E+02   -0.19156E-07   -0.62866E-08    48   0.138E-03
  55 F= -.35643240E+02 E0= -.35643240E+02  d E =-.226775E-05
damped:  g(F)=  0.000E+00 g(S)=  0.000E+00 dE (1.order)= 0.000E+00
 bond charge predicted
       N       E                     dE             d eps       ncg     rms          rms(c)
DAV:   1    -0.356432403990E+02   -0.83879E-06   -0.16048E-03    96   0.364E-01    0.992E-03
DAV:   2    -0.356432405550E+02   -0.15592E-06   -0.16834E-05    64   0.373E-02    0.619E-03
DAV:   3    -0.356432408894E+02   -0.33443E-06   -0.31959E-06    64   0.166E-02    0.145E-03
DAV:   4    -0.356432409850E+02   -0.95602E-07   -0.73472E-07    48   0.733E-03    0.832E-04
DAV:   5    -0.356432410091E+02   -0.24135E-07   -0.19476E-07    48   0.358E-03    0.250E-04
DAV:   6    -0.356432410450E+02   -0.35833E-07   -0.94752E-08    48   0.200E-03
  56 F= -.35643241E+02 E0= -.35643241E+02  d E =-.146555E-05
damped:  g(F)=  0.000E+00 g(S)=  0.000E+00 dE (1.order)= 0.000E+00
 bond charge predicted
       N       E                     dE             d eps       ncg     rms          rms(c)
DAV:   1    -0.356432397780E+02    0.12312E-05   -0.33193E-03    96   0.523E-01    0.142E-02
DAV:   2    -0.356432403052E+02   -0.52727E-06   -0.34560E-05    64   0.534E-02    0.885E-03
DAV:   3    -0.356432409832E+02   -0.67795E-06   -0.62206E-06    64   0.232E-02    0.200E-03
DAV:   4    -0.356432411755E+02   -0.19232E-06   -0.13972E-06    48   0.101E-02    0.109E-03
DAV:   5    -0.356432412350E+02   -0.59547E-07   -0.36438E-07    48   0.496E-03    0.316E-04
DAV:   6    -0.356432413050E+02   -0.69923E-07   -0.15332E-07    48   0.275E-03
  57 F= -.35643241E+02 E0= -.35643241E+02  d E =-.259999E-06
damped:  g(F)=  0.000E+00 g(S)=  0.000E+00 dE (1.order)= 0.000E+00
 bond charge predicted
       N       E                     dE             d eps       ncg     rms          rms(c)
DAV:   1    -0.356432355507E+02    0.56843E-05   -0.63324E-03    96   0.723E-01    0.195E-02
DAV:   2    -0.356432368015E+02   -0.12508E-05   -0.65952E-05    64   0.736E-02    0.122E-02
DAV:   3    -0.356432380125E+02   -0.12110E-05   -0.11360E-05    64   0.314E-02    0.276E-03
DAV:   4    -0.356432383874E+02   -0.37490E-06   -0.25504E-06    48   0.137E-02    0.142E-03
DAV:   5    -0.356432385225E+02   -0.13514E-06   -0.66390E-07    48   0.667E-03    0.417E-04
DAV:   6    -0.356432386583E+02   -0.13579E-06   -0.25675E-07    48   0.368E-03
  58 F= -.35643239E+02 E0= -.35643239E+02  d E =0.264667E-05
damped:  g(F)=  0.000E+00 g(S)=  0.000E+00 dE (1.order)= 0.000E+00
 bond charge predicted
       N       E                     dE             d eps       ncg     rms          rms(c)
DAV:   1    -0.356432243974E+02    0.14125E-04   -0.11314E-02    96   0.966E-01    0.260E-02
DAV:   2    -0.356432269356E+02   -0.25382E-05   -0.11794E-04    76   0.984E-02    0.163E-02
DAV:   3    -0.356432290588E+02   -0.21231E-05   -0.19708E-05    80   0.415E-02    0.370E-03
DAV:   4    -0.356432297586E+02   -0.69989E-06   -0.44582E-06    48   0.181E-02    0.183E-03
DAV:   5    -0.356432300261E+02   -0.26741E-06   -0.11590E-06    48   0.880E-03    0.548E-04
DAV:   6    -0.356432302630E+02   -0.23695E-06   -0.43104E-07    48   0.484E-03
  59 F= -.35643230E+02 E0= -.35643230E+02  d E =0.839528E-05
damped:  g(F)=  0.000E+00 g(S)=  0.000E+00 dE (1.order)= 0.000E+00
 bond charge predicted
       N       E                     dE             d eps       ncg     rms          rms(c)
DAV:   1    -0.356432043115E+02    0.25715E-04   -0.19120E-02    96   0.126E+00    0.337E-02
DAV:   2    -0.356432121529E+02   -0.78414E-05   -0.23006E-04   112   0.128E-01    0.219E-02
DAV:   3    -0.356432127871E+02   -0.63423E-06   -0.11531E-05    80   0.361E-02    0.604E-03
DAV:   4    -0.356432140084E+02   -0.12213E-05   -0.42583E-06    64   0.175E-02    0.248E-03
DAV:   5    -0.356432144134E+02   -0.40502E-06   -0.77316E-07    52   0.787E-03    0.610E-04
DAV:   6    -0.356432147292E+02   -0.31579E-06   -0.17749E-07    48   0.311E-03
  60 F= -.35643215E+02 E0= -.35643215E+02  d E =0.155338E-04
damped:  g(F)=  0.000E+00 g(S)=  0.000E+00 dE (1.order)= 0.000E+00
 bond charge predicted
       N       E                     dE             d eps       ncg     rms          rms(c)
DAV:   1    -0.356431767537E+02    0.37660E-04   -0.30879E-02    96   0.160E+00    0.428E-02
DAV:   2    -0.356431897711E+02   -0.13017E-04   -0.36931E-04   112   0.163E-01    0.277E-02
DAV:   3    -0.356431913017E+02   -0.15306E-05   -0.17642E-05    80   0.452E-02    0.766E-03
DAV:   4    -0.356431933004E+02   -0.19987E-05   -0.67128E-06    48   0.219E-02    0.307E-03
DAV:   5    -0.356431939887E+02   -0.68836E-06   -0.12353E-06    64   0.102E-02    0.716E-04
DAV:   6    -0.356431944580E+02   -0.46930E-06   -0.27282E-07    48   0.397E-03
  61 F= -.35643194E+02 E0= -.35643194E+02  d E =0.202712E-04
damped:  g(F)=  0.000E+00 g(S)=  0.000E+00 dE (1.order)= 0.000E+00
 bond charge predicted
       N       E                     dE             d eps       ncg     rms          rms(c)
DAV:   1    -0.356431538264E+02    0.40162E-04   -0.47796E-02    96   0.199E+00    0.533E-02
DAV:   2    -0.356431740568E+02   -0.20230E-04   -0.57084E-04   112   0.202E-01    0.345E-02
DAV:   3    -0.356431770007E+02   -0.29439E-05   -0.26058E-05    80   0.555E-02    0.956E-03
DAV:   4    -0.356431801256E+02   -0.31249E-05   -0.10288E-05    64   0.269E-02    0.374E-03
DAV:   5    -0.356431812237E+02   -0.10980E-05   -0.18724E-06    64   0.126E-02    0.895E-04
DAV:   6    -0.356431819321E+02   -0.70848E-06   -0.40559E-07    48   0.489E-03
  62 F= -.35643182E+02 E0= -.35643182E+02  d E =0.125259E-04
damped:  g(F)=  0.000E+00 g(S)=  0.000E+00 dE (1.order)= 0.000E+00
 bond charge predicted
       N       E                     dE             d eps       ncg     rms          rms(c)
DAV:   1    -0.356431494695E+02    0.31754E-04   -0.70947E-02    96   0.242E+00    0.651E-02
DAV:   2    -0.356431793406E+02   -0.29871E-04   -0.84561E-04   112   0.244E-01    0.421E-02
DAV:   3    -0.356431846848E+02   -0.53442E-05   -0.36980E-05    80   0.668E-02    0.115E-02
DAV:   4    -0.356431893189E+02   -0.46341E-05   -0.15242E-05    64   0.326E-02    0.445E-03
DAV:   5    -0.356431909471E+02   -0.16282E-05   -0.26424E-06    64   0.149E-02    0.116E-03
DAV:   6    -0.356431920102E+02   -0.10631E-05   -0.55437E-07    48   0.573E-03
  63 F= -.35643192E+02 E0= -.35643192E+02  d E =-.100780E-04
damped:  g(F)=  0.000E+00 g(S)=  0.000E+00 dE (1.order)= 0.000E+00
 bond charge predicted
       N       E                     dE             d eps       ncg     rms          rms(c)
DAV:   1    -0.356431804752E+02    0.10472E-04   -0.10067E-01    96   0.289E+00    0.779E-02
DAV:   2    -0.356432208175E+02   -0.40342E-04   -0.12018E-03   112   0.289E-01    0.503E-02
DAV:   3    -0.356432297033E+02   -0.88859E-05   -0.53643E-05    80   0.805E-02    0.136E-02
DAV:   4    -0.356432364099E+02   -0.67066E-05   -0.22357E-05    64   0.396E-02    0.544E-03
DAV:   5    -0.356432384426E+02   -0.20327E-05   -0.37407E-06    64   0.178E-02    0.171E-03
DAV:   6    -0.356432399763E+02   -0.15337E-05   -0.84004E-07    48   0.721E-03
  64 F= -.35643240E+02 E0= -.35643240E+02  d E =-.479662E-04
damped:  g(F)=  0.000E+00 g(S)=  0.000E+00 dE (1.order)= 0.000E+00
 bond charge predicted
       N       E                     dE             d eps       ncg     rms          rms(c)
DAV:   1    -0.356432308089E+02    0.76337E-05   -0.13393E-01    96   0.333E+00    0.909E-02
DAV:   2    -0.356432774540E+02   -0.46645E-04   -0.15809E-03   112   0.330E-01    0.584E-02
DAV:   3    -0.356432923330E+02   -0.14879E-04   -0.76304E-05    80   0.934E-02    0.154E-02
DAV:   4    -0.356433011406E+02   -0.88075E-05   -0.28098E-05    64   0.447E-02    0.635E-03
DAV:   5    -0.356433037116E+02   -0.25710E-05   -0.46484E-06    64   0.193E-02    0.243E-03
DAV:   6    -0.356433060263E+02   -0.23147E-05   -0.11695E-06    48   0.870E-03
  65 F= -.35643306E+02 E0= -.35643306E+02  d E =-.660499E-04
damped:  g(F)=  0.000E+00 g(S)=  0.000E+00 dE (1.order)= 0.000E+00
 bond charge predicted
       N       E                     dE             d eps       ncg     rms          rms(c)
DAV:   1    -0.356432650246E+02    0.38687E-04   -0.16076E-01    96   0.365E+00    0.101E-01
DAV:   2    -0.356433096149E+02   -0.44590E-04   -0.18848E-03   128   0.361E-01    0.647E-02
DAV:   3    -0.356433304603E+02   -0.20845E-04   -0.10351E-04    80   0.106E-01    0.168E-02
DAV:   4    -0.356433410013E+02   -0.10541E-04   -0.33314E-05    64   0.498E-02    0.738E-03
DAV:   5    -0.356433440526E+02   -0.30513E-05   -0.54753E-06    52   0.208E-02    0.333E-03
DAV:   6    -0.356433472359E+02   -0.31834E-05   -0.16801E-06    64   0.107E-02
  66 F= -.35643347E+02 E0= -.35643347E+02  d E =-.412096E-04
damped:  g(F)=  0.000E+00 g(S)=  0.000E+00 dE (1.order)= 0.000E+00
 bond charge predicted
       N       E                     dE             d eps       ncg     rms          rms(c)
DAV:   1    -0.356433503245E+02   -0.62719E-05   -0.14185E-05    48   0.357E-02    0.112E-03
DAV:   2    -0.356433518693E+02   -0.15449E-05   -0.86396E-07    48   0.904E-03    0.707E-04
DAV:   3    -0.356433538972E+02   -0.20279E-05   -0.19361E-07    48   0.328E-03    0.369E-04
DAV:   4    -0.356433563165E+02   -0.24193E-05   -0.13427E-07    80   0.199E-03    0.166E-04
DAV:   5    -0.356433578988E+02   -0.15823E-05   -0.83540E-08    52   0.131E-03    0.134E-04
DAV:   6    -0.356433611800E+02   -0.32813E-05   -0.22867E-07    64   0.164E-03
  67 F= -.35643361E+02 E0= -.35643361E+02  d E =-.139441E-04
damped:  g(F)=  0.000E+00 g(S)=  0.000E+00 dE (1.order)= 0.000E+00
 bond charge predicted
       N       E                     dE             d eps       ncg     rms          rms(c)
DAV:   1    -0.356433636615E+02   -0.57627E-05   -0.52302E-05    96   0.691E-02    0.168E-03
DAV:   2    -0.356433641607E+02   -0.49925E-06   -0.27055E-06    48   0.167E-02    0.993E-04
DAV:   3    -0.356433644605E+02   -0.29979E-06   -0.33216E-07    48   0.514E-03    0.615E-04
DAV:   4    -0.356433647948E+02   -0.33428E-06   -0.97267E-08    64   0.250E-03    0.182E-04
DAV:   5    -0.356433649654E+02   -0.17059E-06   -0.43689E-08    48   0.124E-03    0.129E-04
DAV:   6    -0.356433650599E+02   -0.94575E-07   -0.27258E-08    48   0.660E-04
  68 F= -.35643365E+02 E0= -.35643365E+02  d E =-.387991E-05
damped:  g(F)=  0.000E+00 g(S)=  0.000E+00 dE (1.order)= 0.000E+00
 bond charge predicted
       N       E                     dE             d eps       ncg     rms          rms(c)
DAV:   1    -0.356433676052E+02   -0.26398E-05   -0.11041E-04    96   0.100E-01    0.244E-03
DAV:   2    -0.356433681624E+02   -0.55725E-06   -0.56665E-06    48   0.242E-02    0.145E-03
DAV:   3    -0.356433682972E+02   -0.13482E-06   -0.68529E-07    48   0.744E-03    0.910E-04
DAV:   4    -0.356433684019E+02   -0.10461E-06   -0.18653E-07    64   0.358E-03    0.277E-04
DAV:   5    -0.356433684517E+02   -0.49834E-07   -0.75191E-08    48   0.175E-03    0.187E-04
DAV:   6    -0.356433684807E+02   -0.28990E-07   -0.43669E-08    48   0.933E-04
  69 F= -.35643368E+02 E0= -.35643368E+02  d E =-.342074E-05
damped:  g(F)=  0.000E+00 g(S)=  0.000E+00 dE (1.order)= 0.000E+00
 bond charge predicted
       N       E                     dE             d eps       ncg     rms          rms(c)
DAV:   1    -0.356433706471E+02   -0.21954E-05   -0.18275E-04    64   0.129E-01    0.312E-03
DAV:   2    -0.356433714791E+02   -0.83198E-06   -0.93540E-06    48   0.310E-02    0.187E-03
DAV:   3    -0.356433716150E+02   -0.13594E-06   -0.11391E-06    48   0.956E-03    0.118E-03
DAV:   4    -0.356433716703E+02   -0.55310E-07   -0.30308E-07    52   0.456E-03    0.375E-04
DAV:   5    -0.356433716871E+02   -0.16758E-07   -0.11557E-07    48   0.223E-03    0.238E-04
DAV:   6    -0.356433716949E+02   -0.77782E-08   -0.62899E-08    48   0.119E-03
  70 F= -.35643372E+02 E0= -.35643372E+02  d E =-.321421E-05
damped:  g(F)=  0.000E+00 g(S)=  0.000E+00 dE (1.order)= 0.000E+00
 bond charge predicted
       N       E                     dE             d eps       ncg     rms          rms(c)
DAV:   1    -0.356433743595E+02   -0.26724E-05   -0.27704E-04    96   0.154E-01    0.383E-03
DAV:   2    -0.356433744453E+02   -0.85832E-07   -0.31818E-06    48   0.163E-02    0.240E-03
DAV:   3    -0.356433745153E+02   -0.69982E-07   -0.59713E-07    48   0.685E-03    0.760E-04
DAV:   4    -0.356433745395E+02   -0.24197E-07   -0.16958E-07    48   0.318E-03    0.379E-04
DAV:   5    -0.356433745459E+02   -0.64445E-08   -0.75995E-08    48   0.152E-03    0.172E-04
DAV:   6    -0.356433745537E+02   -0.78107E-08   -0.55486E-08    48   0.841E-04
  71 F= -.35643375E+02 E0= -.35643375E+02  d E =-.285886E-05
damped:  g(F)=  0.000E+00 g(S)=  0.000E+00 dE (1.order)= 0.000E+00
 bond charge predicted
       N       E                     dE             d eps       ncg     rms          rms(c)
DAV:   1    -0.356433765050E+02   -0.19591E-05   -0.36731E-04    96   0.177E-01    0.438E-03
DAV:   2    -0.356433766251E+02   -0.12002E-06   -0.40615E-06    48   0.184E-02    0.275E-03
DAV:   3    -0.356433767119E+02   -0.86824E-07   -0.72834E-07    48   0.767E-03    0.838E-04
DAV:   4    -0.356433767414E+02   -0.29513E-07   -0.20187E-07    48   0.353E-03    0.405E-04
DAV:   5    -0.356433767497E+02   -0.82953E-08   -0.84358E-08    48   0.169E-03    0.186E-04
DAV:   6    -0.356433767610E+02   -0.11342E-07   -0.58685E-08    48   0.933E-04
  72 F= -.35643377E+02 E0= -.35643377E+02  d E =-.220728E-05
damped:  g(F)=  0.000E+00 g(S)=  0.000E+00 dE (1.order)= 0.000E+00
 bond charge predicted
       N       E                     dE             d eps       ncg     rms          rms(c)
DAV:   1    -0.356433777965E+02   -0.10468E-05   -0.56731E-04    96   0.219E-01    0.543E-03
DAV:   2    -0.356433779900E+02   -0.19357E-06   -0.61159E-06    48   0.225E-02    0.340E-03
DAV:   3    -0.356433781147E+02   -0.12467E-06   -0.10365E-06    48   0.931E-03    0.998E-04
DAV:   4    -0.356433781577E+02   -0.43000E-07   -0.27938E-07    48   0.428E-03    0.447E-04
DAV:   5    -0.356433781703E+02   -0.12637E-07   -0.10429E-07    48   0.207E-03    0.201E-04
DAV:   6    -0.356433781864E+02   -0.16026E-07   -0.65440E-08    48   0.113E-03
  73 F= -.35643378E+02 E0= -.35643378E+02  d E =-.142533E-05
damped:  g(F)=  0.000E+00 g(S)=  0.000E+00 dE (1.order)= 0.000E+00
 bond charge predicted
       N       E                     dE             d eps       ncg     rms          rms(c)
DAV:   1    -0.356433778916E+02    0.27873E-06   -0.84562E-04    96   0.267E-01    0.664E-03
DAV:   2    -0.356433781957E+02   -0.30408E-06   -0.89608E-06    48   0.272E-02    0.414E-03
DAV:   3    -0.356433783675E+02   -0.17184E-06   -0.14382E-06    56   0.111E-02    0.118E-03
DAV:   4    -0.356433784293E+02   -0.61787E-07   -0.38529E-07    48   0.513E-03    0.466E-04
DAV:   5    -0.356433784482E+02   -0.18869E-07   -0.13155E-07    48   0.249E-03    0.203E-04
DAV:   6    -0.356433784704E+02   -0.22269E-07   -0.74029E-08    48   0.135E-03
  74 F= -.35643378E+02 E0= -.35643378E+02  d E =-.284089E-06
damped:  g(F)=  0.000E+00 g(S)=  0.000E+00 dE (1.order)= 0.000E+00
 reached required accuracy - stopping structural energy minimisation
