unknown system                          
           1
    30.000000    0.000000    0.000000
     0.000000   30.000000    0.000000
     0.000000    0.000000   30.000000
   H    C    N 
   3   2   1
Direct configuration=     1
   0.49584212  0.45594221  0.52516237
   0.46410725  0.48436397  0.48338732
   0.47548399  0.51104676  0.53550701
   0.48903371  0.48857310  0.50992438
   0.56199925  0.52165551  0.47701353
   0.52883680  0.50662356  0.49197829
Direct configuration=     2
   0.49613626  0.45574363  0.52520383
   0.46402593  0.48422911  0.48369452
   0.47568246  0.51077512  0.53584535
   0.48913514  0.48840904  0.51008854
   0.56181331  0.52178730  0.47672696
   0.52880183  0.50661121  0.49189539
Direct configuration=     3
   0.49656252  0.45546135  0.52525968
   0.46391430  0.48403201  0.48414551
   0.47597682  0.51037778  0.53632866
   0.48928670  0.48817302  0.51032377
   0.56153384  0.52197373  0.47631648
   0.52874457  0.50659400  0.49178000
Direct configuration=     4
   0.49701482  0.45511858  0.52524868
   0.46377666  0.48391087  0.48474564
   0.47641214  0.50985253  0.53696491
   0.48947696  0.48790000  0.51061475
   0.56119492  0.52211003  0.47581540
   0.52867037  0.50653288  0.49164818
Direct configuration=     5
   0.49745140  0.45473649  0.52515458
   0.46362210  0.48389045  0.48545982
   0.47697887  0.50923249  0.53771233
   0.48970284  0.48761776  0.51094120
   0.56081135  0.52216745  0.47526261
   0.52857517  0.50642550  0.49151866
Direct configuration=     6
   0.49786322  0.45431907  0.52498610
   0.46345208  0.48395245  0.48624123
   0.47765555  0.50856451  0.53852652
   0.48995886  0.48734528  0.51128611
   0.56038564  0.52214409  0.47469235
   0.52846210  0.50628918  0.49140638
Direct configuration=     7
   0.49829217  0.45380952  0.52473080
   0.46324300  0.48407471  0.48711674
   0.47850736  0.50785059  0.53945072
   0.49024358  0.48705699  0.51166879
   0.55990381  0.52204917  0.47406750
   0.52830123  0.50613092  0.49133581
Direct configuration=     8
   0.49829344  0.45380630  0.52472872
   0.46324155  0.48407137  0.48711419
   0.47851237  0.50785769  0.53944877
   0.49023693  0.48705259  0.51167064
   0.55989872  0.52204664  0.47407132
   0.52830770  0.50613838  0.49133591
Direct configuration=     9
   0.49829598  0.45379979  0.52472445
   0.46323856  0.48406476  0.48710902
   0.47852247  0.50787180  0.53944487
   0.49022502  0.48704463  0.51167379
   0.55989269  0.52204363  0.47407690
   0.52831513  0.50615041  0.49133897
Direct configuration=    10
   0.49829993  0.45378943  0.52471754
   0.46323362  0.48405585  0.48710257
   0.47853848  0.50789126  0.53944063
   0.49021068  0.48703439  0.51167777
   0.55989093  0.52204256  0.47408041
   0.52831589  0.50616234  0.49134846
Direct configuration=    11
   0.49830615  0.45377465  0.52470827
   0.46322637  0.48404492  0.48709689
   0.47856073  0.50791331  0.53943817
   0.49019683  0.48702281  0.51168270
   0.55989382  0.52204434  0.47407973
   0.52830735  0.50617189  0.49136452
Direct configuration=    12
   0.49831690  0.45375441  0.52469761
   0.46321627  0.48403049  0.48709461
   0.47858968  0.50793499  0.53943982
   0.49018569  0.48700985  0.51168957
   0.55989507  0.52204804  0.47407535
   0.52829362  0.50618071  0.49138333
Direct configuration=    13
   0.49833342  0.45372838  0.52468604
   0.46320315  0.48401272  0.48709891
   0.47862565  0.50795254  0.53944843
   0.49017853  0.48699509  0.51169960
   0.55988655  0.52205067  0.47406891
   0.52828226  0.50619135  0.49139902
Direct configuration=    14
   0.49835956  0.45369289  0.52467246
   0.46318527  0.48398974  0.48711486
   0.47867420  0.50796333  0.53946899
   0.49017651  0.48697612  0.51171539
   0.55986211  0.52205130  0.47405850
   0.52827514  0.50620519  0.49140952
Direct configuration=    15
   0.49839926  0.45364568  0.52465623
   0.46316177  0.48396124  0.48715019
   0.47874007  0.50796107  0.53950839
   0.49018306  0.48695120  0.51173925
   0.55982154  0.52205202  0.47403725
   0.52826682  0.50621799  0.49141491
Direct configuration=    16
   0.49845736  0.45358437  0.52463623
   0.46313181  0.48392771  0.48721557
   0.47882985  0.50793737  0.53957594
   0.49020214  0.48691773  0.51177425
   0.55977048  0.52205751  0.47399265
   0.52824459  0.50622105  0.49141836
Direct configuration=    17
   0.49853632  0.45351031  0.52461132
   0.46309705  0.48388914  0.48732035
   0.47894733  0.50788448  0.53967593
   0.49023451  0.48687276  0.51182298
   0.55970777  0.52206939  0.47392013
   0.52820580  0.50621110  0.49141754
Direct configuration=    18
   0.49863799  0.45342575  0.52458075
   0.46305946  0.48384574  0.48747507
   0.47909597  0.50779304  0.53981225
   0.49027649  0.48681109  0.51189027
   0.55961259  0.52207973  0.47382601
   0.52817262  0.50619701  0.49139597
Direct configuration=    19
   0.49876375  0.45333297  0.52454456
   0.46302016  0.48379830  0.48768792
   0.47927844  0.50765420  0.53998705
   0.49032942  0.48673091  0.51197909
   0.55948718  0.52209163  0.47370561
   0.52814030  0.50617428  0.49135164
Direct configuration=    20
   0.49891331  0.45323096  0.52450564
   0.46297663  0.48374802  0.48795754
   0.47949346  0.50746538  0.54019927
   0.49040460  0.48663905  0.51208576
   0.55936768  0.52212437  0.47353990
   0.52806519  0.50611983  0.49130637
Direct configuration=    21
   0.49908148  0.45311219  0.52447115
   0.46291992  0.48369484  0.48826827
   0.47973124  0.50723754  0.54044566
   0.49049312  0.48653531  0.51220995
   0.55916352  0.52213018  0.47339061
   0.52806312  0.50609533  0.49119773
Direct configuration=    22
   0.49908277  0.45311015  0.52447209
   0.46291836  0.48369524  0.48826951
   0.47973271  0.50723646  0.54044769
   0.49049947  0.48653712  0.51220681
   0.55918901  0.52214443  0.47337532
   0.52803146  0.50607884  0.49121429
Direct configuration=    23
   0.49908600  0.45310506  0.52447457
   0.46291431  0.48369556  0.48827342
   0.47973629  0.50723312  0.54045310
   0.49050908  0.48653824  0.51220293
   0.55921817  0.52216249  0.47335604
   0.52799376  0.50605911  0.49123210
Direct configuration=    24
   0.49908638  0.45310446  0.52447483
   0.46291380  0.48369550  0.48827416
   0.47973679  0.50723249  0.54045386
   0.49050863  0.48653749  0.51220353
   0.55921310  0.52216027  0.47335841
   0.52799950  0.50606203  0.49122838
Direct configuration=    25
   0.49908719  0.45310325  0.52447533
   0.46291279  0.48369538  0.48827567
   0.47973785  0.50723121  0.54045542
   0.49050789  0.48653606  0.51220466
   0.55920391  0.52215633  0.47336256
   0.52800981  0.50606724  0.49122159
Direct configuration=    26
   0.49908852  0.45310136  0.52447607
   0.46291121  0.48369524  0.48827811
   0.47973963  0.50722916  0.54045790
   0.49050720  0.48653402  0.51220620
   0.55919233  0.52215160  0.47336738
   0.52802253  0.50607363  0.49121288
Direct configuration=    27
   0.49909071  0.45309843  0.52447713
   0.46290880  0.48369512  0.48828199
   0.47974264  0.50722595  0.54046181
   0.49050731  0.48653140  0.51220802
   0.55918131  0.52214784  0.47337077
   0.52803380  0.50607912  0.49120415
Direct configuration=    28
   0.49909083  0.45309830  0.52447717
   0.46290870  0.48369512  0.48828219
   0.47974282  0.50722580  0.54046199
   0.49050747  0.48653136  0.51220803
   0.55918173  0.52214814  0.47337039
   0.52803319  0.50607879  0.49120438
Direct configuration=    29
   0.49909106  0.45309804  0.52447724
   0.46290849  0.48369514  0.48828258
   0.47974317  0.50722549  0.54046237
   0.49050778  0.48653126  0.51220805
   0.55918253  0.52214872  0.47336963
   0.52803202  0.50607813  0.49120482
Direct configuration=    30
   0.49909139  0.45309765  0.52447733
   0.46290816  0.48369519  0.48828316
   0.47974371  0.50722505  0.54046293
   0.49050823  0.48653111  0.51220808
   0.55918369  0.52214955  0.47336854
   0.52803033  0.50607717  0.49120545
Direct configuration=    31
   0.49909179  0.45309715  0.52447747
   0.46290774  0.48369526  0.48828389
   0.47974440  0.50722448  0.54046363
   0.49050881  0.48653093  0.51220811
   0.55918515  0.52215059  0.47336718
   0.52802822  0.50607597  0.49120620
Direct configuration=    32
   0.49909222  0.45309659  0.52447765
   0.46290722  0.48369536  0.48828473
   0.47974520  0.50722384  0.54046440
   0.49050947  0.48653072  0.51220810
   0.55918687  0.52215180  0.47336567
   0.52802578  0.50607457  0.49120705
Direct configuration=    33
   0.49909269  0.45309593  0.52447788
   0.46290660  0.48369549  0.48828571
   0.47974612  0.50722311  0.54046524
   0.49051021  0.48653047  0.51220808
   0.55918872  0.52215315  0.47336407
   0.52802317  0.50607305  0.49120787
Direct configuration=    34
   0.49909327  0.45309508  0.52447822
   0.46290574  0.48369569  0.48828699
   0.47974734  0.50722213  0.54046630
   0.49051111  0.48653008  0.51220806
   0.55919069  0.52215469  0.47336232
   0.52802032  0.50607136  0.49120858
Direct configuration=    35
   0.49909395  0.45309400  0.52447870
   0.46290462  0.48369594  0.48828863
   0.47974888  0.50722089  0.54046758
   0.49051211  0.48652951  0.51220807
   0.55919239  0.52215626  0.47336066
   0.52801771  0.50606973  0.49120884
Direct configuration=    36
   0.49909396  0.45309398  0.52447871
   0.46290460  0.48369595  0.48828866
   0.47974891  0.50722087  0.54046760
   0.49051211  0.48652949  0.51220808
   0.55919233  0.52215624  0.47336069
   0.52801778  0.50606976  0.49120878
Direct configuration=    37
   0.49909397  0.45309395  0.52447874
   0.46290455  0.48369596  0.48828872
   0.47974896  0.50722082  0.54046763
   0.49051211  0.48652945  0.51220809
   0.55919221  0.52215621  0.47336076
   0.52801790  0.50606982  0.49120865
Direct configuration=    38
   0.49909399  0.45309390  0.52447878
   0.46290449  0.48369597  0.48828880
   0.47974903  0.50722075  0.54046766
   0.49051211  0.48652940  0.51220810
   0.55919204  0.52215617  0.47336086
   0.52801809  0.50606990  0.49120847
Direct configuration=    39
   0.49909400  0.45309384  0.52447883
   0.46290441  0.48369599  0.48828891
   0.47974912  0.50722067  0.54046769
   0.49051212  0.48652933  0.51220810
   0.55919182  0.52215613  0.47336100
   0.52801834  0.50607002  0.49120822
Direct configuration=    40
   0.49909402  0.45309377  0.52447890
   0.46290431  0.48369601  0.48828903
   0.47974923  0.50722057  0.54046773
   0.49051212  0.48652924  0.51220811
   0.55919156  0.52215607  0.47336118
   0.52801863  0.50607015  0.49120792
Direct configuration=    41
   0.49909404  0.45309369  0.52447898
   0.46290420  0.48369603  0.48828917
   0.47974935  0.50722046  0.54046776
   0.49051212  0.48652914  0.51220811
   0.55919127  0.52215602  0.47336140
   0.52801898  0.50607031  0.49120758
Direct configuration=    42
   0.49909405  0.45309360  0.52447909
   0.46290405  0.48369606  0.48828934
   0.47974949  0.50722032  0.54046777
   0.49051213  0.48652902  0.51220810
   0.55919090  0.52215596  0.47336169
   0.52801940  0.50607052  0.49120714
Direct configuration=    43
   0.49909405  0.45309350  0.52447925
   0.46290388  0.48369610  0.48828953
   0.47974965  0.50722015  0.54046775
   0.49051213  0.48652888  0.51220806
   0.55919048  0.52215592  0.47336208
   0.52801991  0.50607076  0.49120660
Direct configuration=    44
   0.49909402  0.45309340  0.52447945
   0.46290368  0.48369614  0.48828972
   0.47974981  0.50721996  0.54046766
   0.49051214  0.48652871  0.51220798
   0.55919002  0.52215590  0.47336259
   0.52802049  0.50607105  0.49120595
Direct configuration=    45
   0.49909394  0.45309333  0.52447972
   0.46290346  0.48369617  0.48828989
   0.47974994  0.50721978  0.54046744
   0.49051214  0.48652854  0.51220783
   0.55918956  0.52215596  0.47336326
   0.52802112  0.50607139  0.49120522
Direct configuration=    46
   0.49909378  0.45309332  0.52448006
   0.46290326  0.48369619  0.48828999
   0.47974998  0.50721962  0.54046702
   0.49051214  0.48652837  0.51220758
   0.55918917  0.52215612  0.47336412
   0.52802174  0.50607175  0.49120443
Direct configuration=    47
   0.49909351  0.45309340  0.52448049
   0.46290309  0.48369619  0.48828994
   0.47974989  0.50721953  0.54046633
   0.49051212  0.48652824  0.51220718
   0.55918893  0.52215643  0.47336519
   0.52802230  0.50607213  0.49120365
Direct configuration=    48
   0.49909307  0.45309364  0.52448102
   0.46290301  0.48369615  0.48828966
   0.47974956  0.50721957  0.54046523
   0.49051206  0.48652818  0.51220659
   0.55918891  0.52215696  0.47336655
   0.52802274  0.50607254  0.49120292
Direct configuration=    49
   0.49909239  0.45309413  0.52448168
   0.46290309  0.48369602  0.48828899
   0.47974884  0.50721981  0.54046352
   0.49051196  0.48652823  0.51220571
   0.55918923  0.52215778  0.47336832
   0.52802299  0.50607297  0.49120232
Direct configuration=    50
   0.49909136  0.45309502  0.52448252
   0.46290346  0.48369575  0.48828771
   0.47974749  0.50722038  0.54046088
   0.49051175  0.48652847  0.51220441
   0.55919005  0.52215905  0.47337069
   0.52802299  0.50607348  0.49120194
Direct configuration=    51
   0.49908978  0.45309654  0.52448361
   0.46290430  0.48369524  0.48828544
   0.47974514  0.50722147  0.54045682
   0.49051137  0.48652902  0.51220248
   0.55919154  0.52216093  0.47337401
   0.52802268  0.50607416  0.49120190
Direct configuration=    52
   0.49908741  0.45309903  0.52448506
   0.46290594  0.48369430  0.48828160
   0.47974117  0.50722337  0.54045057
   0.49051069  0.48653002  0.51219962
   0.55919391  0.52216373  0.47337884
   0.52802205  0.50607521  0.49120236
Direct configuration=    53
   0.49908387  0.45310302  0.52448705
   0.46290886  0.48369263  0.48827531
   0.47973466  0.50722651  0.54044098
   0.49050953  0.48653168  0.51219537
   0.55919737  0.52216788  0.47338608
   0.52802114  0.50607700  0.49120351
Direct configuration=    54
   0.49907864  0.45310930  0.52448985
   0.46291384  0.48368971  0.48826522
   0.47972417  0.50723149  0.54042631
   0.49050762  0.48653433  0.51218904
   0.55920214  0.52217402  0.47339711
   0.52802014  0.50608015  0.49120560
Direct configuration=    55
   0.49907100  0.45311897  0.52449391
   0.46292205  0.48368471  0.48824931
   0.47970754  0.50723918  0.54040401
   0.49050454  0.48653842  0.51217963
   0.55920853  0.52218326  0.47341398
   0.52801926  0.50608559  0.49120901
Direct configuration=    56
   0.49906041  0.45313283  0.52449958
   0.46293417  0.48367705  0.48822593
   0.47968308  0.50725040  0.54037231
   0.49049999  0.48654427  0.51216635
   0.55921671  0.52219627  0.47343832
   0.52801895  0.50609406  0.49121389
Direct configuration=    57
   0.49904623  0.45315173  0.52450728
   0.46295089  0.48366604  0.48819297
   0.47964871  0.50726623  0.54032920
   0.49049375  0.48655228  0.51214826
   0.55922705  0.52221398  0.47347203
   0.52801964  0.50610639  0.49122047
Direct configuration=    58
   0.49902787  0.45317656  0.52451754
   0.46297280  0.48365088  0.48814784
   0.47960201  0.50728806  0.54027263
   0.49048551  0.48656282  0.51212424
   0.55924056  0.52223775  0.47351690
   0.52802135  0.50612319  0.49122927
Direct configuration=    59
   0.49900478  0.45320813  0.52453099
   0.46300031  0.48363065  0.48808736
   0.47954010  0.50731765  0.54020061
   0.49047500  0.48657636  0.51209318
   0.55925913  0.52226944  0.47357452
   0.52802359  0.50614479  0.49124117
Direct configuration=    60
   0.49897665  0.45324701  0.52454841
   0.46303353  0.48360434  0.48800777
   0.47945974  0.50735714  0.54011144
   0.49046169  0.48659338  0.51205389
   0.55928510  0.52231133  0.47364636
   0.52802599  0.50617136  0.49125710
Direct configuration=    61
   0.49894355  0.45329336  0.52457065
   0.46307216  0.48357088  0.48790496
   0.47935751  0.50740885  0.54000395
   0.49044446  0.48661436  0.51200561
   0.55931987  0.52236537  0.47373428
   0.52802992  0.50620359  0.49127700
Direct configuration=    62
   0.49890630  0.45334671  0.52459848
   0.46311536  0.48352936  0.48777496
   0.47923041  0.50747503  0.53987808
   0.49042072  0.48663974  0.51194794
   0.55936314  0.52243245  0.47384095
   0.52803967  0.50624295  0.49129913
Direct configuration=    63
   0.49886663  0.45340607  0.52463238
   0.46316166  0.48347916  0.48761483
   0.47907626  0.50755718  0.53973531
   0.49038727  0.48667002  0.51188113
   0.55941640  0.52251416  0.47396722
   0.52805819  0.50628903  0.49132215
Direct configuration=    64
   0.49882808  0.45347082  0.52467161
   0.46320923  0.48342072  0.48742408
   0.47889528  0.50765517  0.53957924
   0.49034084  0.48670560  0.51180632
   0.55948567  0.52261428  0.47410932
   0.52808173  0.50633591  0.49134790
Direct configuration=    65
   0.49879898  0.45354337  0.52471119
   0.46325230  0.48335707  0.48720849
   0.47869200  0.50776374  0.53942120
   0.49027706  0.48674448  0.51172944
   0.55956566  0.52272873  0.47426635
   0.52811853  0.50637650  0.49136891
Direct configuration=    66
   0.49879974  0.45354361  0.52471047
   0.46325182  0.48335765  0.48721017
   0.47869330  0.50776264  0.53942260
   0.49027776  0.48674440  0.51172975
   0.55956494  0.52272796  0.47426570
   0.52811801  0.50637526  0.49136869
Direct configuration=    67
   0.49880125  0.45354403  0.52470904
   0.46325084  0.48335878  0.48721350
   0.47869590  0.50776043  0.53942538
   0.49027908  0.48674422  0.51173038
   0.55956347  0.52272639  0.47426444
   0.52811711  0.50637287  0.49136820
Direct configuration=    68
   0.49880352  0.45354455  0.52470694
   0.46324938  0.48336046  0.48721847
   0.47869980  0.50775713  0.53942953
   0.49028090  0.48674394  0.51173139
   0.55956121  0.52272402  0.47426261
   0.52811599  0.50636946  0.49136737
Direct configuration=    69
   0.49880653  0.45354506  0.52470422
   0.46324741  0.48336267  0.48722500
   0.47870498  0.50775277  0.53943500
   0.49028304  0.48674354  0.51173281
   0.55955817  0.52272085  0.47426024
   0.52811480  0.50636520  0.49136612
Direct configuration=    70
   0.49881028  0.45354538  0.52470094
   0.46324494  0.48336538  0.48723303
   0.47871143  0.50774740  0.53944177
   0.49028532  0.48674303  0.51173472
   0.55955449  0.52271694  0.47425729
   0.52811363  0.50636021  0.49136442
Direct configuration=    71
   0.49881475  0.45354536  0.52469719
   0.46324193  0.48336857  0.48724247
   0.47871914  0.50774109  0.53944977
   0.49028757  0.48674236  0.51173716
   0.55955040  0.52271244  0.47425370
   0.52811240  0.50635458  0.49136231
Direct configuration=    72
   0.49882049  0.45354469  0.52469258
   0.46323793  0.48337261  0.48725439
   0.47872909  0.50773314  0.53946006
   0.49028987  0.48674140  0.51174052
   0.55954579  0.52270694  0.47424883
   0.52811085  0.50634773  0.49135958
Direct configuration=    73
   0.49882770  0.45354292  0.52468707
   0.46323261  0.48337763  0.48726915
   0.47874174  0.50772337  0.53947313
   0.49029210  0.48673994  0.51174506
   0.55954092  0.52270044  0.47424229
   0.52810882  0.50633963  0.49135616
Direct configuration=    74
   0.49882770  0.45354292  0.52468707
   0.46323261  0.48337763  0.48726915
   0.47874174  0.50772337  0.53947313
   0.49029210  0.48673994  0.51174506
   0.55954092  0.52270044  0.47424229
   0.52810882  0.50633963  0.49135616
