   6   6   0   0
  0.4500000E+04  0.3000000E-08  0.3000000E-08  0.3000000E-08  0.0000000E+00
  1.000000000000000E-004
  CAR 
 unknown system                          
      1.82720438    -26.19645745  301     -6.29929266      1.00000000
    -26.196  0.0000E+00  0.0000E+00
    -26.103  0.0000E+00  0.0000E+00
    -26.010  0.0000E+00  0.0000E+00
    -25.916  0.0000E+00  0.0000E+00
    -25.823  0.0000E+00  0.0000E+00
    -25.729  0.0000E+00  0.0000E+00
    -25.636  0.0000E+00  0.0000E+00
    -25.543  0.0000E+00  0.0000E+00
    -25.449  0.0000E+00  0.0000E+00
    -25.356  0.7923E-17  0.7401E-18
    -25.262  0.1710E-14  0.1605E-15
    -25.169  0.2174E-12  0.2047E-13
    -25.076  0.1800E-10  0.1702E-11
    -24.982  0.9706E-09  0.9236E-10
    -24.889  0.3413E-07  0.3280E-08
    -24.795  0.7831E-06  0.7643E-07
    -24.702  0.1174E-04  0.1173E-05
    -24.608  0.1151E-03  0.1192E-04
    -24.515  0.7387E-03  0.8093E-04
    -24.422  0.3107E-02  0.3711E-03
    -24.328  0.8570E-02  0.1172E-02
    -24.235  0.1551E-01  0.2621E-02
    -24.141  0.1844E-01  0.4343E-02
    -24.048  0.1439E-01  0.5687E-02
    -23.955  0.7371E-02  0.6376E-02
    -23.861  0.2478E-02  0.6608E-02
    -23.768  0.5463E-03  0.6659E-02
    -23.674  0.7890E-04  0.6666E-02
    -23.581  0.7459E-05  0.6667E-02
    -23.488  0.4611E-06  0.6667E-02
    -23.394  0.1862E-07  0.6667E-02
    -23.301  0.4905E-09  0.6667E-02
    -23.207  0.8424E-11  0.6667E-02
    -23.114  0.9422E-13  0.6667E-02
    -23.020  0.6893E-15  0.6667E-02
    -22.927  0.0000E+00  0.6667E-02
    -22.834  0.0000E+00  0.6667E-02
    -22.740  0.0000E+00  0.6667E-02
    -22.647  0.0000E+00  0.6667E-02
    -22.553  0.0000E+00  0.6667E-02
    -22.460  0.0000E+00  0.6667E-02
    -22.367  0.0000E+00  0.6667E-02
    -22.273  0.0000E+00  0.6667E-02
    -22.180  0.0000E+00  0.6667E-02
    -22.086  0.0000E+00  0.6667E-02
    -21.993  0.0000E+00  0.6667E-02
    -21.899  0.0000E+00  0.6667E-02
    -21.806  0.0000E+00  0.6667E-02
    -21.713  0.0000E+00  0.6667E-02
    -21.619  0.0000E+00  0.6667E-02
    -21.526  0.0000E+00  0.6667E-02
    -21.432  0.0000E+00  0.6667E-02
    -21.339  0.0000E+00  0.6667E-02
    -21.246  0.0000E+00  0.6667E-02
    -21.152  0.0000E+00  0.6667E-02
    -21.059  0.0000E+00  0.6667E-02
    -20.965  0.0000E+00  0.6667E-02
    -20.872  0.0000E+00  0.6667E-02
    -20.779  0.0000E+00  0.6667E-02
    -20.685  0.0000E+00  0.6667E-02
    -20.592  0.0000E+00  0.6667E-02
    -20.498  0.0000E+00  0.6667E-02
    -20.405  0.0000E+00  0.6667E-02
    -20.311  0.0000E+00  0.6667E-02
    -20.218  0.0000E+00  0.6667E-02
    -20.125  0.0000E+00  0.6667E-02
    -20.031  0.0000E+00  0.6667E-02
    -19.938  0.0000E+00  0.6667E-02
    -19.844  0.0000E+00  0.6667E-02
    -19.751  0.0000E+00  0.6667E-02
    -19.658  0.0000E+00  0.6667E-02
    -19.564  0.0000E+00  0.6667E-02
    -19.471  0.0000E+00  0.6667E-02
    -19.377  0.0000E+00  0.6667E-02
    -19.284  0.0000E+00  0.6667E-02
    -19.191  0.0000E+00  0.6667E-02
    -19.097  0.0000E+00  0.6667E-02
    -19.004  0.0000E+00  0.6667E-02
    -18.910  0.9904E-16  0.6667E-02
    -18.817  0.1590E-13  0.6667E-02
    -18.723  0.1668E-11  0.6667E-02
    -18.630  0.1139E-09  0.6667E-02
    -18.537  0.5067E-08  0.6667E-02
    -18.443  0.1470E-06  0.6667E-02
    -18.350  0.2786E-05  0.6667E-02
    -18.256  0.3451E-04  0.6670E-02
    -18.163  0.2796E-03  0.6696E-02
    -18.070  0.1484E-02  0.6835E-02
    -17.976  0.5164E-02  0.7317E-02
    -17.883  0.1179E-01  0.8418E-02
    -17.789  0.1766E-01  0.1007E-01
    -17.696  0.1738E-01  0.1169E-01
    -17.603  0.1122E-01  0.1274E-01
    -17.509  0.4758E-02  0.1318E-01
    -17.416  0.1323E-02  0.1331E-01
    -17.322  0.2413E-03  0.1333E-01
    -17.229  0.2881E-04  0.1333E-01
    -17.135  0.2251E-05  0.1333E-01
    -17.042  0.1149E-06  0.1333E-01
    -16.949  0.3830E-08  0.1333E-01
    -16.855  0.8326E-10  0.1333E-01
    -16.762  0.1179E-11  0.1333E-01
    -16.668  0.1088E-13  0.1333E-01
    -16.575  0.6339E-16  0.1333E-01
    -16.482  0.0000E+00  0.1333E-01
    -16.388  0.0000E+00  0.1333E-01
    -16.295  0.0000E+00  0.1333E-01
    -16.201  0.0000E+00  0.1333E-01
    -16.108  0.0000E+00  0.1333E-01
    -16.015  0.0000E+00  0.1333E-01
    -15.921  0.0000E+00  0.1333E-01
    -15.828  0.0000E+00  0.1333E-01
    -15.734  0.0000E+00  0.1333E-01
    -15.641  0.0000E+00  0.1333E-01
    -15.547  0.0000E+00  0.1333E-01
    -15.454  0.0000E+00  0.1333E-01
    -15.361  0.0000E+00  0.1333E-01
    -15.267  0.0000E+00  0.1333E-01
    -15.174  0.0000E+00  0.1333E-01
    -15.080  0.0000E+00  0.1333E-01
    -14.987  0.0000E+00  0.1333E-01
    -14.894  0.0000E+00  0.1333E-01
    -14.800  0.0000E+00  0.1333E-01
    -14.707  0.0000E+00  0.1333E-01
    -14.613  0.0000E+00  0.1333E-01
    -14.520  0.0000E+00  0.1333E-01
    -14.427  0.0000E+00  0.1333E-01
    -14.333  0.0000E+00  0.1333E-01
    -14.240  0.0000E+00  0.1333E-01
    -14.146  0.0000E+00  0.1333E-01
    -14.053  0.0000E+00  0.1333E-01
    -13.959  0.0000E+00  0.1333E-01
    -13.866  0.0000E+00  0.1333E-01
    -13.773  0.2773E-16  0.1333E-01
    -13.679  0.4709E-14  0.1333E-01
    -13.586  0.5493E-12  0.1333E-01
    -13.492  0.4170E-10  0.1333E-01
    -13.399  0.2063E-08  0.1333E-01
    -13.306  0.6653E-07  0.1333E-01
    -13.212  0.1401E-05  0.1333E-01
    -13.119  0.1927E-04  0.1334E-01
    -13.025  0.1734E-03  0.1335E-01
    -12.932  0.1022E-02  0.1345E-01
    -12.839  0.3946E-02  0.1382E-01
    -12.745  0.9996E-02  0.1475E-01
    -12.652  0.1662E-01  0.1630E-01
    -12.558  0.1814E-01  0.1800E-01
    -12.465  0.1300E-01  0.1921E-01
    -12.371  0.6118E-02  0.1978E-01
    -12.278  0.1889E-02  0.1996E-01
    -12.185  0.3830E-03  0.1999E-01
    -12.091  0.6082E-04  0.2000E-01
    -11.998  0.1062E-03  0.2001E-01
    -11.904  0.6703E-03  0.2007E-01
    -11.811  0.2889E-02  0.2034E-01
    -11.718  0.8169E-02  0.2111E-01
    -11.624  0.1516E-01  0.2252E-01
    -11.531  0.1847E-01  0.2425E-01
    -11.437  0.1479E-01  0.2563E-01
    -11.344  0.7936E-02  0.2637E-01
    -11.251  0.3721E-02  0.2672E-01
    -11.157  0.4624E-02  0.2715E-01
    -11.064  0.1020E-01  0.2810E-01
    -10.970  0.1671E-01  0.2966E-01
    -10.877  0.1811E-01  0.3135E-01
    -10.783  0.1289E-01  0.3256E-01
    -10.690  0.6022E-02  0.3312E-01
    -10.597  0.1846E-02  0.3329E-01
    -10.503  0.3711E-03  0.3333E-01
    -10.410  0.4886E-04  0.3333E-01
    -10.316  0.4210E-05  0.3333E-01
    -10.223  0.2372E-06  0.3333E-01
    -10.130  0.1029E-07  0.3333E-01
    -10.036  0.5225E-07  0.3333E-01
     -9.943  0.1131E-05  0.3333E-01
     -9.849  0.1606E-04  0.3333E-01
     -9.756  0.1492E-03  0.3335E-01
     -9.662  0.9077E-03  0.3343E-01
     -9.569  0.3618E-02  0.3377E-01
     -9.476  0.9460E-02  0.3466E-01
     -9.382  0.1623E-01  0.3617E-01
     -9.289  0.1829E-01  0.3788E-01
     -9.195  0.1353E-01  0.3914E-01
     -9.102  0.6569E-02  0.3976E-01
     -9.009  0.2093E-02  0.3995E-01
     -8.915  0.4377E-03  0.3999E-01
     -8.822  0.6651E-04  0.4000E-01
     -8.728  0.7714E-04  0.4001E-01
     -8.635  0.5066E-03  0.4005E-01
     -8.542  0.2340E-02  0.4027E-01
     -8.448  0.7089E-02  0.4094E-01
     -8.355  0.1410E-01  0.4225E-01
     -8.261  0.1840E-01  0.4397E-01
     -8.168  0.1577E-01  0.4544E-01
     -8.074  0.8874E-02  0.4627E-01
     -7.981  0.3277E-02  0.4658E-01
     -7.888  0.7950E-03  0.4665E-01
     -7.794  0.1435E-03  0.4667E-01
     -7.701  0.1736E-03  0.4668E-01
     -7.607  0.9622E-03  0.4677E-01
     -7.514  0.3774E-02  0.4713E-01
     -7.421  0.9718E-02  0.4803E-01
     -7.327  0.1642E-01  0.4957E-01
     -7.234  0.1822E-01  0.5127E-01
     -7.140  0.1328E-01  0.5251E-01
     -7.047  0.6350E-02  0.5310E-01
     -6.954  0.1993E-02  0.5329E-01
     -6.860  0.4100E-03  0.5333E-01
     -6.767  0.5526E-04  0.5333E-01
     -6.673  0.4874E-05  0.5333E-01
     -6.580  0.2811E-06  0.5333E-01
     -6.486  0.1059E-07  0.5333E-01
     -6.393  0.2601E-09  0.5333E-01
     -6.300  0.4165E-11  0.5333E-01
     -6.206  0.4343E-13  0.5333E-01
     -6.113  0.3011E-15  0.5333E-01
     -6.019  0.0000E+00  0.5333E-01
     -5.926  0.0000E+00  0.5333E-01
     -5.833  0.0000E+00  0.5333E-01
     -5.739  0.0000E+00  0.5333E-01
     -5.646  0.0000E+00  0.5333E-01
     -5.552  0.0000E+00  0.5333E-01
     -5.459  0.0000E+00  0.5333E-01
     -5.366  0.0000E+00  0.5333E-01
     -5.272  0.0000E+00  0.5333E-01
     -5.179  0.0000E+00  0.5333E-01
     -5.085  0.0000E+00  0.5333E-01
     -4.992  0.0000E+00  0.5333E-01
     -4.898  0.0000E+00  0.5333E-01
     -4.805  0.0000E+00  0.5333E-01
     -4.712  0.0000E+00  0.5333E-01
     -4.618  0.0000E+00  0.5333E-01
     -4.525  0.0000E+00  0.5333E-01
     -4.431  0.0000E+00  0.5333E-01
     -4.338  0.0000E+00  0.5333E-01
     -4.245  0.0000E+00  0.5333E-01
     -4.151  0.0000E+00  0.5333E-01
     -4.058  0.0000E+00  0.5333E-01
     -3.964  0.0000E+00  0.5333E-01
     -3.871  0.0000E+00  0.5333E-01
     -3.778  0.0000E+00  0.5333E-01
     -3.684  0.0000E+00  0.5333E-01
     -3.591  0.0000E+00  0.5333E-01
     -3.497  0.0000E+00  0.5333E-01
     -3.404  0.0000E+00  0.5333E-01
     -3.310  0.0000E+00  0.5333E-01
     -3.217  0.0000E+00  0.5333E-01
     -3.124  0.0000E+00  0.5333E-01
     -3.030  0.0000E+00  0.5333E-01
     -2.937  0.0000E+00  0.5333E-01
     -2.843  0.1902E-15  0.5333E-01
     -2.750  0.2913E-13  0.5333E-01
     -2.657  0.2895E-11  0.5333E-01
     -2.563  0.1873E-09  0.5333E-01
     -2.470  0.7902E-08  0.5333E-01
     -2.376  0.2174E-06  0.5333E-01
     -2.283  0.3906E-05  0.5333E-01
     -2.190  0.4588E-04  0.5334E-01
     -2.096  0.3526E-03  0.5337E-01
     -2.003  0.1775E-02  0.5354E-01
     -1.909  0.5859E-02  0.5408E-01
     -1.816  0.1269E-01  0.5527E-01
     -1.722  0.1804E-01  0.5695E-01
     -1.629  0.1684E-01  0.5853E-01
     -1.536  0.1034E-01  0.5949E-01
     -1.442  0.4342E-02  0.5990E-01
     -1.349  0.2203E-02  0.6010E-01
     -1.255  0.4375E-02  0.6051E-01
     -1.162  0.1040E-01  0.6148E-01
     -1.069  0.1691E-01  0.6306E-01
     -0.975  0.1831E-01  0.6477E-01
     -0.882  0.1418E-01  0.6610E-01
     -0.788  0.1114E-01  0.6714E-01
     -0.695  0.1377E-01  0.6843E-01
     -0.602  0.1819E-01  0.7012E-01
     -0.508  0.1785E-01  0.7179E-01
     -0.415  0.1349E-01  0.7305E-01
     -0.321  0.1198E-01  0.7417E-01
     -0.228  0.1565E-01  0.7563E-01
     -0.134  0.1867E-01  0.7738E-01
     -0.041  0.1554E-01  0.7883E-01
      0.052  0.8572E-02  0.7963E-01
      0.146  0.3107E-02  0.7992E-01
      0.239  0.7386E-03  0.7999E-01
      0.333  0.1151E-03  0.8000E-01
      0.426  0.1174E-04  0.8000E-01
      0.519  0.7829E-06  0.8000E-01
      0.613  0.3412E-07  0.8000E-01
      0.706  0.9703E-09  0.8000E-01
      0.800  0.1799E-10  0.8000E-01
      0.893  0.2173E-12  0.8000E-01
      0.986  0.1708E-14  0.8000E-01
      1.080  0.7923E-17  0.8000E-01
      1.173  0.0000E+00  0.8000E-01
      1.267  0.0000E+00  0.8000E-01
      1.360  0.0000E+00  0.8000E-01
      1.454  0.0000E+00  0.8000E-01
      1.547  0.0000E+00  0.8000E-01
      1.640  0.0000E+00  0.8000E-01
      1.734  0.0000E+00  0.8000E-01
      1.827  0.0000E+00  0.8000E-01
