    6    6  300    1
  0.4500000E+04  0.3000000E-08  0.3000000E-08  0.3000000E-08  0.0000000E+00
  1.000000000000000E-004
  CAR 
 unknown system                          
     16      4     12
 
  0.2500000E+00  0.2500000E+00  0.2500000E+00  0.2500000E+00
    1      -24.196456   1.000000
    2      -17.792991   1.000000
    3      -12.632222   1.000000
    4      -11.580320   1.000000
    5      -10.952331   1.000000
    6       -9.355793   1.000000
    7       -8.295556   1.000000
    8       -7.304091   1.000000
    9       -1.737765   0.000000
   10       -1.053987   0.000000
   11       -0.607957   0.000000
   12       -0.172812   0.000000
 
 -0.2500000E+00  0.2500000E+00  0.2500000E+00  0.2500000E+00
    1      -24.196457   1.000000
    2      -17.792992   1.000000
    3      -12.632222   1.000000
    4      -11.580321   1.000000
    5      -10.952334   1.000000
    6       -9.355783   1.000000
    7       -8.295552   1.000000
    8       -7.304104   1.000000
    9       -1.737771   0.000000
   10       -1.053996   0.000000
   11       -0.607963   0.000000
   12       -0.172807   0.000000
 
  0.2500000E+00 -0.2500000E+00  0.2500000E+00  0.2500000E+00
    1      -24.196457   1.000000
    2      -17.792991   1.000000
    3      -12.632217   1.000000
    4      -11.580323   1.000000
    5      -10.952334   1.000000
    6       -9.355791   1.000000
    7       -8.295567   1.000000
    8       -7.304100   1.000000
    9       -1.737769   0.000000
   10       -1.053993   0.000000
   11       -0.607960   0.000000
   12       -0.172796   0.000000
 
 -0.2500000E+00 -0.2500000E+00  0.2500000E+00  0.2500000E+00
    1      -24.196457   1.000000
    2      -17.792991   1.000000
    3      -12.632220   1.000000
    4      -11.580330   1.000000
    5      -10.952334   1.000000
    6       -9.355789   1.000000
    7       -8.295557   1.000000
    8       -7.304101   1.000000
    9       -1.737771   0.000000
   10       -1.053996   0.000000
   11       -0.607958   0.000000
   12       -0.172796   0.000000
