       N       E                     dE             d eps       ncg     rms          rms(c)
DAV:   1     0.107320314691E+03    0.10732E+03   -0.21295E+03   160   0.366E+02
DAV:   2    -0.665397485823E+00   -0.10799E+03   -0.10440E+03   192   0.100E+02
DAV:   3    -0.336742066195E+02   -0.33009E+02   -0.32919E+02   128   0.878E+01
DAV:   4    -0.368149437607E+02   -0.31407E+01   -0.31065E+01   128   0.296E+01
DAV:   5    -0.369079212754E+02   -0.92978E-01   -0.91313E-01   124   0.517E+00    0.104E+01
DAV:   6    -0.346516415301E+02    0.22563E+01   -0.35420E+00   108   0.134E+01    0.560E+00
DAV:   7    -0.340532571514E+02    0.59838E+00   -0.14583E+00   120   0.829E+00    0.207E+00
DAV:   8    -0.339926733209E+02    0.60584E-01   -0.11482E-01   128   0.279E+00    0.770E-01
DAV:   9    -0.339787536013E+02    0.13920E-01   -0.20123E-02   128   0.120E+00    0.209E-01
DAV:  10    -0.339783995505E+02    0.35405E-03   -0.26136E-03   128   0.447E-01    0.115E-01
DAV:  11    -0.339798054429E+02   -0.14059E-02   -0.12265E-03   128   0.255E-01    0.719E-02
DAV:  12    -0.339841505272E+02   -0.43451E-02   -0.21207E-03   128   0.302E-01    0.383E-02
DAV:  13    -0.339900084491E+02   -0.58579E-02   -0.13147E-03   160   0.190E-01    0.246E-02
DAV:  14    -0.339927689249E+02   -0.27605E-02   -0.24969E-04   128   0.896E-02    0.142E-02
DAV:  15    -0.339948189635E+02   -0.20500E-02   -0.14264E-04   128   0.598E-02    0.853E-03
DAV:  16    -0.339964552737E+02   -0.16363E-02   -0.15069E-04   128   0.543E-02    0.489E-03
DAV:  17    -0.339972967010E+02   -0.84143E-03   -0.43133E-05    96   0.347E-02    0.283E-03
DAV:  18    -0.339975145744E+02   -0.21787E-03   -0.16646E-05    96   0.201E-02    0.172E-03
DAV:  19    -0.339976600933E+02   -0.14552E-03   -0.83589E-06    96   0.132E-02    0.856E-04
DAV:  20    -0.339977342887E+02   -0.74195E-04   -0.31285E-06    96   0.100E-02
   1 F= -.33997734E+02 E0= -.33997734E+02  d E =-.339977E+02
       N       E                     dE             d eps       ncg     rms          rms(c)
DAV:   1    -0.339974730566E+02    0.18704E-03   -0.18249E-03   128   0.406E-01    0.119E-02
DAV:   2    -0.339974785633E+02   -0.55068E-05   -0.26298E-05    96   0.426E-02    0.722E-03
DAV:   3    -0.339974861000E+02   -0.75367E-05   -0.36779E-06    96   0.177E-02    0.280E-03
DAV:   4    -0.339974921650E+02   -0.60650E-05   -0.88566E-07    96   0.843E-03    0.988E-04
DAV:   5    -0.339974962986E+02   -0.41337E-05   -0.15580E-07    96   0.360E-03    0.313E-04
DAV:   6    -0.339974991592E+02   -0.28606E-05   -0.42201E-08    48   0.161E-03
   2 F= -.33997499E+02 E0= -.33997499E+02  d E =0.235129E-03
       N       E                     dE             d eps       ncg     rms          rms(c)
DAV:   1    -0.339971900498E+02    0.30625E-03   -0.42872E-03    96   0.614E-01    0.175E-02
DAV:   2    -0.339971896346E+02    0.41517E-06   -0.62471E-05    96   0.662E-02    0.107E-02
DAV:   3    -0.339971922313E+02   -0.25967E-05   -0.87408E-06    48   0.272E-02    0.394E-03
DAV:   4    -0.339971941123E+02   -0.18810E-05   -0.18750E-06    48   0.126E-02    0.143E-03
DAV:   5    -0.339971950263E+02   -0.91395E-06   -0.30754E-07    80   0.531E-03    0.464E-04
DAV:   6    -0.339971956483E+02   -0.62200E-06   -0.96477E-08    48   0.246E-03
   3 F= -.33997196E+02 E0= -.33997196E+02  d E =0.303511E-03
       N       E                     dE             d eps       ncg     rms          rms(c)
DAV:   1    -0.339974695983E+02   -0.27457E-03   -0.45239E-03    96   0.619E-01    0.190E-02
DAV:   2    -0.339974669935E+02    0.26049E-05   -0.58266E-05    96   0.679E-02    0.115E-02
DAV:   3    -0.339974711281E+02   -0.41346E-05   -0.10581E-05    48   0.298E-02    0.291E-03
DAV:   4    -0.339974717134E+02   -0.58533E-06   -0.18145E-06    48   0.126E-02    0.153E-03
DAV:   5    -0.339974721033E+02   -0.38987E-06   -0.36726E-07    80   0.557E-03    0.454E-04
DAV:   6    -0.339974723112E+02   -0.20791E-06   -0.11638E-07    48   0.279E-03
   4 F= -.33997472E+02 E0= -.33997472E+02  d E =-.276663E-03
       N       E                     dE             d eps       ncg     rms          rms(c)
DAV:   1    -0.339990006448E+02   -0.15285E-02   -0.12456E-02    96   0.105E+00    0.354E-02
DAV:   2    -0.339989880369E+02    0.12608E-04   -0.15047E-04   128   0.983E-02    0.220E-02
DAV:   3    -0.339989992046E+02   -0.11168E-04   -0.77976E-06    80   0.306E-02    0.791E-03
DAV:   4    -0.339990033733E+02   -0.41687E-05   -0.22742E-06    48   0.146E-02    0.226E-03
DAV:   5    -0.339990035568E+02   -0.18355E-06   -0.55144E-07    48   0.716E-03    0.839E-04
DAV:   6    -0.339990037443E+02   -0.18748E-06   -0.18040E-07    80   0.342E-03
   5 F= -.33999004E+02 E0= -.33999004E+02  d E =-.153143E-02
       N       E                     dE             d eps       ncg     rms          rms(c)
DAV:   1    -0.340025330508E+02   -0.35295E-02   -0.52205E-02    96   0.219E+00    0.697E-02
DAV:   2    -0.340024982542E+02    0.34797E-04   -0.71493E-04   128   0.210E-01    0.450E-02
DAV:   3    -0.340025235423E+02   -0.25288E-04   -0.30052E-05    80   0.628E-02    0.202E-02
DAV:   4    -0.340025520547E+02   -0.28512E-04   -0.12854E-05    80   0.350E-02    0.466E-03
DAV:   5    -0.340025520099E+02    0.44789E-07   -0.24376E-06    48   0.162E-02    0.188E-03
DAV:   6    -0.340025523603E+02   -0.35039E-06   -0.85267E-07    80   0.793E-03
   6 F= -.34002552E+02 E0= -.34002552E+02  d E =-.354862E-02
       N       E                     dE             d eps       ncg     rms          rms(c)
DAV:   1    -0.340088875724E+02   -0.63356E-02   -0.15773E-01    96   0.383E+00    0.118E-01
DAV:   2    -0.340088306778E+02    0.56895E-04   -0.23398E-03   128   0.378E-01    0.767E-02
DAV:   3    -0.340088752654E+02   -0.44588E-04   -0.84314E-05    80   0.105E-01    0.366E-02
DAV:   4    -0.340089629165E+02   -0.87651E-04   -0.41994E-05    96   0.629E-02    0.802E-03
DAV:   5    -0.340089626994E+02    0.21703E-06   -0.77965E-06    80   0.289E-02    0.330E-03
DAV:   6    -0.340089637107E+02   -0.10113E-05   -0.22976E-06    80   0.131E-02
   7 F= -.34008964E+02 E0= -.34008964E+02  d E =-.641135E-02
       N       E                     dE             d eps       ncg     rms          rms(c)
DAV:   1    -0.340202741856E+02   -0.11311E-01   -0.45706E-01    96   0.653E+00    0.198E-01
DAV:   2    -0.340202144638E+02    0.59722E-04   -0.71218E-03   128   0.656E-01    0.129E-01
DAV:   3    -0.340202912383E+02   -0.76775E-04   -0.27893E-04   128   0.175E-01    0.623E-02
DAV:   4    -0.340205211138E+02   -0.22988E-03   -0.70539E-05    96   0.911E-02    0.110E-02
DAV:   5    -0.340205225466E+02   -0.14329E-05   -0.13720E-05    80   0.368E-02    0.524E-03
DAV:   6    -0.340205254935E+02   -0.29469E-05   -0.32355E-06    96   0.163E-02
   8 F= -.34020525E+02 E0= -.34020525E+02  d E =-.115618E-01
       N       E                     dE             d eps       ncg     rms          rms(c)
DAV:   1    -0.340373188215E+02   -0.16796E-01   -0.86854E-01    96   0.901E+00    0.271E-01
DAV:   2    -0.340373188004E+02    0.21100E-07   -0.13827E-02   128   0.911E-01    0.177E-01
DAV:   3    -0.340374190790E+02   -0.10028E-03   -0.52014E-04   128   0.234E-01    0.849E-02
DAV:   4    -0.340378109226E+02   -0.39184E-03   -0.13490E-04    96   0.123E-01    0.147E-02
DAV:   5    -0.340378151472E+02   -0.42246E-05   -0.26228E-05    96   0.501E-02    0.713E-03
DAV:   6    -0.340378218914E+02   -0.67442E-05   -0.55307E-06    96   0.214E-02
   9 F= -.34037822E+02 E0= -.34037822E+02  d E =-.172964E-01
       N       E                     dE             d eps       ncg     rms          rms(c)
DAV:   1    -0.340592356862E+02   -0.21421E-01   -0.10819E+00    96   0.101E+01    0.306E-01
DAV:   2    -0.340592506993E+02   -0.15013E-04   -0.16922E-02   128   0.100E+00    0.200E-01
DAV:   3    -0.340593736958E+02   -0.12300E-03   -0.67282E-04   128   0.260E-01    0.932E-02
DAV:   4    -0.340598129173E+02   -0.43922E-03   -0.15974E-04    96   0.133E-01    0.164E-02
DAV:   5    -0.340598207338E+02   -0.78166E-05   -0.32723E-05    96   0.548E-02    0.789E-03
DAV:   6    -0.340598324850E+02   -0.11751E-04   -0.66938E-06    96   0.236E-02
  10 F= -.34059832E+02 E0= -.34059832E+02  d E =-.220106E-01
       N       E                     dE             d eps       ncg     rms          rms(c)
DAV:   1    -0.340591451422E+02    0.67559E-03   -0.17322E-03    96   0.398E-01    0.112E-02
DAV:   2    -0.340591523701E+02   -0.72279E-05   -0.30659E-05    96   0.466E-02    0.702E-03
DAV:   3    -0.340591597916E+02   -0.74215E-05   -0.46646E-06    64   0.195E-02    0.376E-03
DAV:   4    -0.340591697243E+02   -0.99328E-05   -0.15031E-06    96   0.103E-02    0.104E-03
DAV:   5    -0.340591754874E+02   -0.57631E-05   -0.48062E-07    96   0.535E-03    0.459E-04
DAV:   6    -0.340591791604E+02   -0.36730E-05   -0.23650E-07    64   0.296E-03
  11 F= -.34059179E+02 E0= -.34059179E+02  d E =0.653325E-03
       N       E                     dE             d eps       ncg     rms          rms(c)
DAV:   1    -0.340577897912E+02    0.13857E-02   -0.64818E-03   128   0.773E-01    0.213E-02
DAV:   2    -0.340577924545E+02   -0.26633E-05   -0.11400E-04    96   0.891E-02    0.132E-02
DAV:   3    -0.340577963372E+02   -0.38827E-05   -0.15997E-05    96   0.363E-02    0.715E-03
DAV:   4    -0.340578013867E+02   -0.50495E-05   -0.38852E-06    96   0.180E-02    0.180E-03
DAV:   5    -0.340578027498E+02   -0.13631E-05   -0.99765E-07    96   0.857E-03    0.673E-04
DAV:   6    -0.340578034579E+02   -0.70808E-06   -0.30954E-07    48   0.407E-03
  12 F= -.34057803E+02 E0= -.34057803E+02  d E =0.137570E-02
       N       E                     dE             d eps       ncg     rms          rms(c)
DAV:   1    -0.340557675594E+02    0.20352E-02   -0.13272E-02    96   0.111E+00    0.309E-02
DAV:   2    -0.340557723493E+02   -0.47899E-05   -0.25402E-04   128   0.123E-01    0.204E-02
DAV:   3    -0.340557721630E+02    0.18624E-06   -0.65711E-06    96   0.282E-02    0.115E-02
DAV:   4    -0.340557793428E+02   -0.71798E-05   -0.45834E-06    96   0.206E-02    0.208E-03
DAV:   5    -0.340557795264E+02   -0.18366E-06   -0.95467E-07    96   0.971E-03    0.977E-04
DAV:   6    -0.340557796504E+02   -0.12394E-06   -0.15738E-07    48   0.352E-03
  13 F= -.34055780E+02 E0= -.34055780E+02  d E =0.202381E-02
       N       E                     dE             d eps       ncg     rms          rms(c)
DAV:   1    -0.340531827492E+02    0.25968E-02   -0.20677E-02    96   0.139E+00    0.394E-02
DAV:   2    -0.340531868933E+02   -0.41440E-05   -0.37287E-04   128   0.150E-01    0.257E-02
DAV:   3    -0.340531871656E+02   -0.27234E-06   -0.10002E-05    96   0.339E-02    0.137E-02
DAV:   4    -0.340531964265E+02   -0.92609E-05   -0.65640E-06    96   0.241E-02    0.252E-03
DAV:   5    -0.340531966456E+02   -0.21911E-06   -0.12597E-06    48   0.111E-02    0.114E-03
DAV:   6    -0.340531969193E+02   -0.27373E-06   -0.21275E-07    80   0.415E-03
  14 F= -.34053197E+02 E0= -.34053197E+02  d E =0.258273E-02
       N       E                     dE             d eps       ncg     rms          rms(c)
DAV:   1    -0.340501382936E+02    0.30584E-02   -0.25928E-02    96   0.156E+00    0.447E-02
DAV:   2    -0.340501415889E+02   -0.32952E-05   -0.45300E-04   128   0.165E-01    0.293E-02
DAV:   3    -0.340501428844E+02   -0.12955E-05   -0.12638E-05    96   0.385E-02    0.154E-02
DAV:   4    -0.340501550033E+02   -0.12119E-04   -0.80159E-06    96   0.268E-02    0.292E-03
DAV:   5    -0.340501553643E+02   -0.36100E-06   -0.15343E-06    48   0.124E-02    0.128E-03
DAV:   6    -0.340501558136E+02   -0.44924E-06   -0.27978E-07    48   0.468E-03
  15 F= -.34050156E+02 E0= -.34050156E+02  d E =0.304111E-02
       N       E                     dE             d eps       ncg     rms          rms(c)
DAV:   1    -0.340468341099E+02    0.33213E-02   -0.27063E-02    96   0.160E+00    0.464E-02
DAV:   2    -0.340468352629E+02   -0.11530E-05   -0.45953E-04   128   0.166E-01    0.309E-02
DAV:   3    -0.340468371551E+02   -0.18922E-05   -0.14082E-05    96   0.424E-02    0.163E-02
DAV:   4    -0.340468513234E+02   -0.14168E-04   -0.89757E-06    96   0.293E-02    0.332E-03
DAV:   5    -0.340468516672E+02   -0.34377E-06   -0.17727E-06    48   0.137E-02    0.148E-03
DAV:   6    -0.340468521927E+02   -0.52549E-06   -0.40288E-07    48   0.556E-03
  16 F= -.34046852E+02 E0= -.34046852E+02  d E =0.330362E-02
       N       E                     dE             d eps       ncg     rms          rms(c)
DAV:   1    -0.340431405306E+02    0.37111E-02   -0.30920E-02    96   0.171E+00    0.512E-02
DAV:   2    -0.340431354159E+02    0.51147E-05   -0.47515E-04   128   0.170E-01    0.341E-02
DAV:   3    -0.340431410479E+02   -0.56320E-05   -0.17550E-05    96   0.482E-02    0.170E-02
DAV:   4    -0.340431573047E+02   -0.16257E-04   -0.10195E-05    48   0.317E-02    0.379E-03
DAV:   5    -0.340431575715E+02   -0.26678E-06   -0.19167E-06    48   0.145E-02    0.170E-03
DAV:   6    -0.340431582021E+02   -0.63056E-06   -0.60035E-07    48   0.686E-03
  17 F= -.34043158E+02 E0= -.34043158E+02  d E =0.369399E-02
       N       E                     dE             d eps       ncg     rms          rms(c)
DAV:   1    -0.340394710882E+02    0.36865E-02   -0.31808E-02    96   0.173E+00    0.534E-02
DAV:   2    -0.340394581663E+02    0.12922E-04   -0.41589E-04   128   0.163E-01    0.343E-02
DAV:   3    -0.340394734574E+02   -0.15291E-04   -0.16061E-05    96   0.444E-02    0.146E-02
DAV:   4    -0.340394854102E+02   -0.11953E-04   -0.66384E-06    48   0.244E-02    0.326E-03
DAV:   5    -0.340394858201E+02   -0.40993E-06   -0.12441E-06    48   0.111E-02    0.132E-03
DAV:   6    -0.340394864705E+02   -0.65034E-06   -0.38994E-07    48   0.510E-03
  18 F= -.34039486E+02 E0= -.34039486E+02  d E =0.367173E-02
       N       E                     dE             d eps       ncg     rms          rms(c)
DAV:   1    -0.340395346767E+02   -0.48857E-04   -0.21410E-05    48   0.444E-02    0.114E-03
DAV:   2    -0.340395351763E+02   -0.49955E-06   -0.94080E-07    80   0.102E-02    0.722E-04
DAV:   3    -0.340395356470E+02   -0.47072E-06   -0.11026E-07    48   0.292E-03    0.425E-04
DAV:   4    -0.340395363557E+02   -0.70876E-06   -0.52032E-08    80   0.148E-03    0.117E-04
DAV:   5    -0.340395366359E+02   -0.28014E-06   -0.28331E-08    48   0.781E-04    0.889E-05
DAV:   6    -0.340395370335E+02   -0.39758E-06   -0.27110E-08    48   0.527E-04
  19 F= -.34039537E+02 E0= -.34039537E+02  d E =-.505630E-04
       N       E                     dE             d eps       ncg     rms          rms(c)
DAV:   1    -0.340396467787E+02   -0.11014E-03   -0.92176E-05    80   0.926E-02    0.238E-03
DAV:   2    -0.340396471920E+02   -0.41324E-06   -0.40547E-06    48   0.212E-02    0.147E-03
DAV:   3    -0.340396473775E+02   -0.18547E-06   -0.39959E-07    48   0.601E-03    0.892E-04
DAV:   4    -0.340396476162E+02   -0.23874E-06   -0.11390E-07    48   0.283E-03    0.215E-04
DAV:   5    -0.340396476920E+02   -0.75789E-07   -0.46060E-08    48   0.131E-03    0.152E-04
DAV:   6    -0.340396477756E+02   -0.83621E-07   -0.28643E-08    80   0.662E-04
  20 F= -.34039648E+02 E0= -.34039648E+02  d E =-.110742E-03
       N       E                     dE             d eps       ncg     rms          rms(c)
DAV:   1    -0.340398349520E+02   -0.18726E-03   -0.22795E-04    96   0.144E-01    0.386E-03
DAV:   2    -0.340398350227E+02   -0.70700E-07   -0.37846E-06    48   0.161E-02    0.239E-03
DAV:   3    -0.340398351253E+02   -0.10268E-06   -0.49845E-07    48   0.627E-03    0.120E-03
DAV:   4    -0.340398352559E+02   -0.13054E-06   -0.13476E-07    80   0.311E-03    0.329E-04
DAV:   5    -0.340398352926E+02   -0.36718E-07   -0.49424E-08    48   0.135E-03    0.124E-04
DAV:   6    -0.340398353160E+02   -0.23441E-07   -0.32647E-08    48   0.633E-04
  21 F= -.34039835E+02 E0= -.34039835E+02  d E =-.187540E-03
       N       E                     dE             d eps       ncg     rms          rms(c)
DAV:   1    -0.340401145304E+02   -0.27924E-03   -0.42745E-04   128   0.198E-01    0.534E-03
DAV:   2    -0.340401145378E+02   -0.73956E-08   -0.71410E-06    48   0.219E-02    0.330E-03
DAV:   3    -0.340401146390E+02   -0.10120E-06   -0.91889E-07    48   0.857E-03    0.170E-03
DAV:   4    -0.340401147926E+02   -0.15362E-06   -0.23447E-07    48   0.425E-03    0.455E-04
DAV:   5    -0.340401147971E+02   -0.45154E-08   -0.76407E-08    48   0.188E-03    0.178E-04
DAV:   6    -0.340401148033E+02   -0.62214E-08   -0.44322E-08    48   0.868E-04
  22 F= -.34040115E+02 E0= -.34040115E+02  d E =-.279487E-03
       N       E                     dE             d eps       ncg     rms          rms(c)
DAV:   1    -0.340404985869E+02   -0.38379E-03   -0.69605E-04   128   0.253E-01    0.690E-03
DAV:   2    -0.340404985601E+02    0.26776E-07   -0.11661E-05    48   0.279E-02    0.427E-03
DAV:   3    -0.340404987228E+02   -0.16263E-06   -0.15000E-06    48   0.110E-02    0.222E-03
DAV:   4    -0.340404989787E+02   -0.25591E-06   -0.36667E-07    48   0.545E-03    0.573E-04
DAV:   5    -0.340404989876E+02   -0.89863E-08   -0.10779E-07    48   0.244E-03    0.228E-04
DAV:   6    -0.340404990001E+02   -0.12492E-07   -0.53269E-08    48   0.113E-03
  23 F= -.34040499E+02 E0= -.34040499E+02  d E =-.384197E-03
       N       E                     dE             d eps       ncg     rms          rms(c)
DAV:   1    -0.340409809403E+02   -0.48195E-03   -0.99395E-04    96   0.303E-01    0.832E-03
DAV:   2    -0.340409808895E+02    0.50865E-07   -0.16570E-05    96   0.333E-02    0.516E-03
DAV:   3    -0.340409811400E+02   -0.25058E-06   -0.21327E-06    48   0.131E-02    0.268E-03
DAV:   4    -0.340409815170E+02   -0.37696E-06   -0.51274E-07    48   0.652E-03    0.668E-04
DAV:   5    -0.340409815358E+02   -0.18804E-07   -0.14303E-07    48   0.294E-03    0.268E-04
DAV:   6    -0.340409815577E+02   -0.21865E-07   -0.63244E-08    48   0.137E-03
  24 F= -.34040982E+02 E0= -.34040982E+02  d E =-.482558E-03
       N       E                     dE             d eps       ncg     rms          rms(c)
DAV:   1    -0.340416204590E+02   -0.63892E-03   -0.16068E-03    96   0.386E-01    0.107E-02
DAV:   2    -0.340416203611E+02    0.97857E-07   -0.26498E-05    96   0.421E-02    0.663E-03
DAV:   3    -0.340416207919E+02   -0.43083E-06   -0.34054E-06    48   0.166E-02    0.340E-03
DAV:   4    -0.340416214093E+02   -0.61736E-06   -0.80879E-07    48   0.823E-03    0.815E-04
DAV:   5    -0.340416214399E+02   -0.30582E-07   -0.21514E-07    48   0.374E-03    0.326E-04
DAV:   6    -0.340416214738E+02   -0.33883E-07   -0.84217E-08    48   0.176E-03
  25 F= -.34041621E+02 E0= -.34041621E+02  d E =-.639916E-03
       N       E                     dE             d eps       ncg     rms          rms(c)
DAV:   1    -0.340424400773E+02   -0.81864E-03   -0.24317E-03    96   0.476E-01    0.133E-02
DAV:   2    -0.340424398715E+02    0.20580E-06   -0.39326E-05    96   0.512E-02    0.827E-03
DAV:   3    -0.340424405859E+02   -0.71439E-06   -0.50480E-06    48   0.203E-02    0.415E-03
DAV:   4    -0.340424415152E+02   -0.92928E-06   -0.11961E-06    48   0.996E-03    0.951E-04
DAV:   5    -0.340424415644E+02   -0.49216E-07   -0.31234E-07    48   0.454E-03    0.377E-04
DAV:   6    -0.340424416178E+02   -0.53371E-07   -0.11380E-07    48   0.217E-03
  26 F= -.34042442E+02 E0= -.34042442E+02  d E =-.820144E-03
       N       E                     dE             d eps       ncg     rms          rms(c)
DAV:   1    -0.340434571499E+02   -0.10156E-02   -0.34182E-03    96   0.566E-01    0.160E-02
DAV:   2    -0.340434566859E+02    0.46395E-06   -0.53497E-05    96   0.598E-02    0.997E-03
DAV:   3    -0.340434578196E+02   -0.11337E-05   -0.68917E-06    48   0.237E-02    0.484E-03
DAV:   4    -0.340434591205E+02   -0.13009E-05   -0.16387E-06    48   0.115E-02    0.107E-03
DAV:   5    -0.340434591961E+02   -0.75612E-07   -0.42955E-07    48   0.525E-03    0.418E-04
DAV:   6    -0.340434592773E+02   -0.81196E-07   -0.15188E-07    48   0.255E-03
  27 F= -.34043459E+02 E0= -.34043459E+02  d E =-.101766E-02
       N       E                     dE             d eps       ncg     rms          rms(c)
DAV:   1    -0.340446719756E+02   -0.12128E-02   -0.43702E-03    96   0.642E-01    0.185E-02
DAV:   2    -0.340446709035E+02    0.10720E-05   -0.64940E-05    96   0.662E-02    0.115E-02
DAV:   3    -0.340446726139E+02   -0.17104E-05   -0.85567E-06    64   0.263E-02    0.532E-03
DAV:   4    -0.340446742923E+02   -0.16783E-05   -0.20494E-06    48   0.124E-02    0.117E-03
DAV:   5    -0.340446744045E+02   -0.11221E-06   -0.55245E-07    48   0.574E-03    0.461E-04
DAV:   6    -0.340446745216E+02   -0.11713E-06   -0.19592E-07    48   0.285E-03
  28 F= -.34044675E+02 E0= -.34044675E+02  d E =-.121524E-02
