 vasp.5.4.1 24Jun15 (build Jan 13 2020 12:58:22) complex                        
  
 executed on           IFC91_ompi date 2020.02.03  02:42:24
 running on   15 total cores
 each image running on    1 cores
 distrk:  each k-point on    1 cores,    1 groups
 distr:  one band on NCORES_PER_BAND=   1 cores,    1 groups


--------------------------------------------------------------------------------------------------------


 INCAR:
 POTCAR:    PAW_PBE H 15Jun2001                   
 POTCAR:    PAW_PBE C 08Apr2002                   
 POTCAR:    PAW_PBE N 08Apr2002                   
 POTCAR:    PAW_PBE H 15Jun2001                   
   VRHFIN =H: ultrasoft test                                                    
   LEXCH  = PE                                                                  
   EATOM  =    12.4884 eV,    0.9179 Ry                                         
                                                                                
   TITEL  = PAW_PBE H 15Jun2001                                                 
   LULTRA =        F    use ultrasoft PP ?                                      
   IUNSCR =        0    unscreen: 0-lin 1-nonlin 2-no                           
   RPACOR =    0.000    partial core radius                                     
   POMASS =    1.000; ZVAL   =    1.000    mass and valenz                      
   RCORE  =    1.100    outmost cutoff radius                                   
   RWIGS  =    0.700; RWIGS  =    0.370    wigner-seitz radius (au A)           
   ENMAX  =  250.000; ENMIN  =  200.000 eV                                      
   RCLOC  =    0.701    cutoff for local pot                                    
   LCOR   =        T    correct aug charges                                     
   LPAW   =        T    paw PP                                                  
   EAUG   =  400.000                                                            
   RMAX   =    1.123    core radius for proj-oper                               
   RAUG   =    1.200    factor for augmentation sphere                          
   RDEP   =    1.112    radius for radial grids                                 
   RDEPT  =    0.926    core radius for aug-charge                              
                                                                                
   Atomic configuration                                                         
    2 entries                                                                   
     n  l   j            E        occ.                                          
     1  0  0.50        -6.4927   1.0000                                         
     2  1  0.50        -3.4015   0.0000                                         
   Description                                                                  
     l       E           TYP  RCUT    TYP  RCUT                                 
     0     -6.4927494     23  1.100                                             
     0      6.8029130     23  1.100                                             
     1     -4.0817478     23  1.100                                             
  local pseudopotential read in
  atomic valenz-charges read in
  non local Contribution for L=           0  read in
    real space projection operators read in
  non local Contribution for L=           0  read in
    real space projection operators read in
  non local Contribution for L=           1  read in
    real space projection operators read in
    PAW grid and wavefunctions read in
 
   number of l-projection  operators is LMAX  =           3
   number of lm-projection operators is LMMAX =           5
 
 POTCAR:    PAW_PBE C 08Apr2002                   
   VRHFIN =C: s2p2                                                              
   LEXCH  = PE                                                                  
   EATOM  =   147.1560 eV,   10.8157 Ry                                         
                                                                                
   TITEL  = PAW_PBE C 08Apr2002                                                 
   LULTRA =        F    use ultrasoft PP ?                                      
   IUNSCR =        1    unscreen: 0-lin 1-nonlin 2-no                           
   RPACOR =    1.200    partial core radius                                     
   POMASS =   12.011; ZVAL   =    4.000    mass and valenz                      
   RCORE  =    1.500    outmost cutoff radius                                   
   RWIGS  =    1.630; RWIGS  =    0.863    wigner-seitz radius (au A)           
   ENMAX  =  400.000; ENMIN  =  300.000 eV                                      
   ICORE  =        2    local potential                                         
   LCOR   =        T    correct aug charges                                     
   LPAW   =        T    paw PP                                                  
   EAUG   =  644.873                                                            
   DEXC   =    0.000                                                            
   RMAX   =    1.529    core radius for proj-oper                               
   RAUG   =    1.300    factor for augmentation sphere                          
   RDEP   =    1.501    radius for radial grids                                 
   RDEPT  =    1.300    core radius for aug-charge                              
                                                                                
   Atomic configuration                                                         
    4 entries                                                                   
     n  l   j            E        occ.                                          
     1  0  0.50      -273.3789   2.0000                                         
     2  0  0.50       -13.7508   2.0000                                         
     2  1  0.50        -5.2854   2.0000                                         
     3  2  1.50        -5.4423   0.0000                                         
   Description                                                                  
     l       E           TYP  RCUT    TYP  RCUT                                 
     0    -13.7508458     23  1.200                                             
     0     -8.2022199     23  1.200                                             
     1     -5.2854383     23  1.500                                             
     1     34.0145650     23  1.500                                             
     2     -5.4423304      7  1.500                                             
  local pseudopotential read in
  partial core-charges read in
  partial kinetic energy density read in
  atomic valenz-charges read in
  non local Contribution for L=           0  read in
    real space projection operators read in
  non local Contribution for L=           0  read in
    real space projection operators read in
  non local Contribution for L=           1  read in
    real space projection operators read in
  non local Contribution for L=           1  read in
    real space projection operators read in
    PAW grid and wavefunctions read in
 
   number of l-projection  operators is LMAX  =           4
   number of lm-projection operators is LMMAX =           8
 
 POTCAR:    PAW_PBE N 08Apr2002                   
   VRHFIN =N: s2p3                                                              
   LEXCH  = PE                                                                  
   EATOM  =   264.5486 eV,   19.4438 Ry                                         
                                                                                
   TITEL  = PAW_PBE N 08Apr2002                                                 
   LULTRA =        F    use ultrasoft PP ?                                      
   IUNSCR =        1    unscreen: 0-lin 1-nonlin 2-no                           
   RPACOR =    1.200    partial core radius                                     
   POMASS =   14.001; ZVAL   =    5.000    mass and valenz                      
   RCORE  =    1.500    outmost cutoff radius                                   
   RWIGS  =    1.400; RWIGS  =    0.741    wigner-seitz radius (au A)           
   ENMAX  =  400.000; ENMIN  =  300.000 eV                                      
   ICORE  =        2    local potential                                         
   LCOR   =        T    correct aug charges                                     
   LPAW   =        T    paw PP                                                  
   EAUG   =  627.112                                                            
   DEXC   =    0.000                                                            
   RMAX   =    1.529    core radius for proj-oper                               
   RAUG   =    1.300    factor for augmentation sphere                          
   RDEP   =    1.514    radius for radial grids                                 
   RDEPT  =    1.338    core radius for aug-charge                              
                                                                                
   Atomic configuration                                                         
    4 entries                                                                   
     n  l   j            E        occ.                                          
     1  0  0.50      -384.7179   2.0000                                         
     2  0  0.50       -18.5828   2.0000                                         
     2  1  0.50        -7.0898   3.0000                                         
     3  2  1.50        -6.8029   0.0000                                         
   Description                                                                  
     l       E           TYP  RCUT    TYP  RCUT                                 
     0    -18.5828119     23  1.200                                             
     0    -13.5018863     23  1.200                                             
     1     -7.0897853     23  1.500                                             
     1      9.5240782     23  1.500                                             
     2     -6.8029130      7  1.500                                             
  local pseudopotential read in
  partial core-charges read in
  partial kinetic energy density read in
  atomic valenz-charges read in
  non local Contribution for L=           0  read in
    real space projection operators read in
  non local Contribution for L=           0  read in
    real space projection operators read in
  non local Contribution for L=           1  read in
    real space projection operators read in
  non local Contribution for L=           1  read in
    real space projection operators read in
    PAW grid and wavefunctions read in
 
   number of l-projection  operators is LMAX  =           4
   number of lm-projection operators is LMMAX =           8
 

 ----------------------------------------------------------------------------- 
|                                                                             |
|  ADVICE TO THIS USER RUNNING 'VASP/VAMP'   (HEAR YOUR MASTER'S VOICE ...):  |
|                                                                             |
|      You have a (more or less) 'small supercell' and for smaller cells      |
|      it is recommended  to use the reciprocal-space projection scheme!      |
|      The real space optimization is not  efficient for small cells and it   |
|      is also less accurate ...                                              |
|      Therefore set LREAL=.FALSE. in the  INCAR file                         |
|                                                                             |
 ----------------------------------------------------------------------------- 

 Optimization of the real space projectors (new method)

 maximal supplied QI-value         = 34.20
 optimisation between [QCUT,QGAM] = [  9.92, 20.18] = [ 27.55,114.04] Ry 
 Optimized for a Real-space Cutoff    1.26 Angstroem

   l    n(q)    QCUT    max X(q) W(low)/X(q) W(high)/X(q)  e(spline) 
   0      8     9.919    19.460    0.50E-03    0.23E-03    0.29E-06
   0      8     9.919    12.209    0.48E-03    0.23E-03    0.28E-06
   1      7     9.919     4.655    0.17E-03    0.75E-03    0.30E-06
 Optimization of the real space projectors (new method)

 maximal supplied QI-value         = 25.13
 optimisation between [QCUT,QGAM] = [ 10.05, 20.36] = [ 28.30,116.06] Ry 
 Optimized for a Real-space Cutoff    1.30 Angstroem

   l    n(q)    QCUT    max X(q) W(low)/X(q) W(high)/X(q)  e(spline) 
   0      8    10.053   115.676    0.49E-03    0.72E-03    0.18E-06
   0      8    10.053    87.132    0.49E-03    0.71E-03    0.18E-06
   1      7    10.053     4.429    0.32E-03    0.31E-03    0.18E-06
   1      7    10.053     2.733    0.23E-03    0.19E-03    0.20E-06
 Optimization of the real space projectors (new method)

 maximal supplied QI-value         = 25.13
 optimisation between [QCUT,QGAM] = [ 10.05, 20.36] = [ 28.30,116.06] Ry 
 Optimized for a Real-space Cutoff    1.65 Angstroem

   l    n(q)    QCUT    max X(q) W(low)/X(q) W(high)/X(q)  e(spline) 
   0     10    10.053    79.467    0.76E-04    0.72E-04    0.56E-06
   0     10    10.053    66.151    0.76E-04    0.72E-04    0.55E-06
   1     10    10.053     8.350    0.25E-03    0.92E-03    0.41E-05
   1     10    10.053     5.531    0.27E-03    0.10E-02    0.45E-05
  PAW_PBE H 15Jun2001                   :
 energy of atom  1       EATOM=  -12.4884
 kinetic energy error for atom=    0.0098 (will be added to EATOM!!)
  PAW_PBE C 08Apr2002                   :
 energy of atom  2       EATOM= -147.1560
 kinetic energy error for atom=    0.0288 (will be added to EATOM!!)
  PAW_PBE N 08Apr2002                   :
 energy of atom  3       EATOM= -264.5486
 kinetic energy error for atom=    0.0736 (will be added to EATOM!!)
 
 
 POSCAR: H3 C2 N1                                
  positions in direct lattice
  velocities in cartesian coordinates
 exchange correlation table for  LEXCH =        8
   RHO(1)=    0.500       N(1)  =     2000
   RHO(2)=  100.500       N(2)  =     4000

 VTST: version 3.2, (02/03/18)

 CHAIN: initializing optimizer
 
 OPT: Using FIRE optimizer
 OPT: FIRE, Init
 OPT: FIRE, MAXMOVE       0.20000
 OPT: FIRE, TIMESTEP      0.10000
 OPT: FIRE, FTIMEMAX      1.00000
 OPT: FIRE, FTIMEINC      1.10000
 OPT: FIRE, FTIMEDEC      0.50000
 OPT: FIRE, FALPHADEC     0.99000
 OPT: FIRE, FALPHA        0.10000
 OPT: FIRE, FNMIN         5
 
 CHAIN: Read ICHAIN            0
 CHAIN: Running the NEB
 NEB:          SPRING     -5.000000
 NEB:          LCLIMB      T
 NEB:     LTANGENTOLD      F
 NEB:           LDNEB      F
 NEB:        LDNEBORG      F
 NEB:        LNEBCELL      F
 NEB:          EFIRST      0.000000
 NEB:           ELAST      0.000000
 
 POSCAR: H3 C2 N1                                
  positions in direct lattice
  No initial velocities read in
 
 POSCAR: H3 C2 N1                                
  positions in direct lattice
  No initial velocities read in
 


--------------------------------------------------------------------------------------------------------


 ion  position               nearest neighbor table
   1  0.475  0.466  0.507-   4 1.09
   2  0.478  0.511  0.466-   4 1.09
   3  0.473  0.524  0.524-   4 1.09
   4  0.486  0.500  0.500-   3 1.09   1 1.09   2 1.09   6 1.71   5 1.89
   5  0.546  0.486  0.486-   6 1.21   4 1.89
   6  0.540  0.512  0.517-   5 1.21   4 1.71
 
  LATTYP: Found a simple cubic cell.
 ALAT       =    30.0000000000
  
  Lattice vectors:
  
 A1 = (  30.0000000000,   0.0000000000,   0.0000000000)
 A2 = (   0.0000000000,  30.0000000000,   0.0000000000)
 A3 = (   0.0000000000,   0.0000000000,  30.0000000000)


Analysis of symmetry for initial positions (statically):
=====================================================================
 Subroutine PRICEL returns:
 Original cell was already a primitive cell.
 

 Routine SETGRP: Setting up the symmetry group for a 
 simple cubic supercell.


 Subroutine GETGRP returns: Found  1 space group operations
 (whereof  1 operations were pure point group operations)
 out of a pool of 48 trial point group operations.


The static configuration has the point symmetry C_1 .


Analysis of symmetry for dynamics (positions and initial velocities):
=====================================================================
 Subroutine PRICEL returns:
 Original cell was already a primitive cell.
 

 Routine SETGRP: Setting up the symmetry group for a 
 simple cubic supercell.


 Subroutine GETGRP returns: Found  1 space group operations
 (whereof  1 operations were pure point group operations)
 out of a pool of 48 trial point group operations.


The dynamic configuration has the point symmetry C_1 .
 
 
 KPOINTS: Mo2C                                    

Automatic generation of k-mesh.
Space group operators:
 irot       det(A)        alpha          n_x          n_y          n_z        tau_x        tau_y        tau_z
    1     1.000000     0.000000     1.000000     0.000000     0.000000     0.000000     0.000000     0.000000
 
 Subroutine IBZKPT returns following result:
 ===========================================
 
 Found      4 irreducible k-points:
 
 Following reciprocal coordinates:
            Coordinates               Weight
  0.250000  0.250000  0.250000      2.000000
 -0.250000  0.250000  0.250000      2.000000
  0.250000 -0.250000  0.250000      2.000000
 -0.250000 -0.250000  0.250000      2.000000
 
 Following cartesian coordinates:
            Coordinates               Weight
  0.008333  0.008333  0.008333      2.000000
 -0.008333  0.008333  0.008333      2.000000
  0.008333 -0.008333  0.008333      2.000000
 -0.008333 -0.008333  0.008333      2.000000
 


--------------------------------------------------------------------------------------------------------




 Dimension of arrays:
   k-points           NKPTS =      4   k-points in BZ     NKDIM =      4   number of bands    NBANDS=     12
   number of dos      NEDOS =    301   number of ions     NIONS =      6
   non local maximal  LDIM  =      4   non local SUM 2l+1 LMDIM =      8
   total plane-waves  NPLWV = ******
   max r-space proj   IRMAX =   2395   max aug-charges    IRDMAX=   1738
   dimension x,y,z NGX =   150 NGY =  150 NGZ =  150
   dimension x,y,z NGXF=   300 NGYF=  300 NGZF=  300
   support grid    NGXF=   300 NGYF=  300 NGZF=  300
   ions per type =               3   2   1
 NGX,Y,Z   is equivalent  to a cutoff of   8.31,  8.31,  8.31 a.u.
 NGXF,Y,Z  is equivalent  to a cutoff of  16.62, 16.62, 16.62 a.u.


 I would recommend the setting:
   dimension x,y,z NGX =   147 NGY =  147 NGZ =  147
 SYSTEM =  unknown system                          
 POSCAR =  H3 C2 N1                                

 Startparameter for this run:
   NWRITE =      2    write-flag & timer
   PREC   = normal    normal or accurate (medium, high low for compatibility)
   ISTART =      0    job   : 0-new  1-cont  2-samecut
   ICHARG =      2    charge: 1-file 2-atom 10-const
   ISPIN  =      1    spin polarized calculation?
   LNONCOLLINEAR =      F non collinear calculations
   LSORBIT =      F    spin-orbit coupling
   INIWAV =      1    electr: 0-lowe 1-rand  2-diag
   LASPH  =      F    aspherical Exc in radial PAW
   METAGGA=      F    non-selfconsistent MetaGGA calc.

 Electronic Relaxation 1
   ENCUT  =  400.0 eV  29.40 Ry    5.42 a.u.  48.92 48.92 48.92*2*pi/ulx,y,z
   ENINI  =  400.0     initial cutoff
   ENAUG  =  644.9 eV  augmentation charge cutoff
   NELM   =    500;   NELMIN=  6; NELMDL= -5     # of ELM steps 
   EDIFF  = 0.1E-03   stopping-criterion for ELM
   LREAL  =      T    real-space projection
   NLSPLINE    = F    spline interpolate recip. space projectors
   LCOMPAT=      F    compatible to vasp.4.4
   GGA_COMPAT  = T    GGA compatible to vasp.4.4-vasp.4.6
   LMAXPAW     = -100 max onsite density
   LMAXMIX     =    2 max onsite mixed and CHGCAR
   VOSKOWN=      0    Vosko Wilk Nusair interpolation
   ROPT   =   -0.00050  -0.00050  -0.00050
 Ionic relaxation
   EDIFFG = -.1E+00   stopping-criterion for IOM
   NSW    =    300    number of steps for IOM
   NBLOCK =      1;   KBLOCK =    300    inner block; outer block 
   IBRION =      3    ionic relax: 0-MD 1-quasi-New 2-CG
   NFREE  =      0    steps in history (QN), initial steepest desc. (CG)
   ISIF   =      2    stress and relaxation
   IWAVPR =     11    prediction:  0-non 1-charg 2-wave 3-comb
   ISYM   =      2    0-nonsym 1-usesym 2-fastsym
   LCORR  =      T    Harris-Foulkes like correction to forces

   POTIM  = 0.0000    time-step for ionic-motion
   TEIN   =    0.0    initial temperature
   TEBEG  =    0.0;   TEEND  =   0.0 temperature during run
   SMASS  =   2.00    Nose mass-parameter (am)
   estimated Nose-frequenzy (Omega)   =  0.12E+10 period in steps =  0.00 mass=   0.137E-25a.u.
   SCALEE = 1.0000    scale energy and forces
   NPACO  =    256;   APACO  = 16.0  distance and # of slots for P.C.
   PSTRESS=    0.0 pullay stress

  Mass of Ions in am
   POMASS =   1.00 12.01 14.00
  Ionic Valenz
   ZVAL   =   1.00  4.00  5.00
  Atomic Wigner-Seitz radii
   RWIGS  =  -1.00 -1.00 -1.00
  virtual crystal weights 
   VCA    =   1.00  1.00  1.00
   NELECT =      16.0000    total number of electrons
   NUPDOWN=      -1.0000    fix difference up-down

 DOS related values:
   EMIN   =  10.00;   EMAX   =-10.00  energy-range for DOS
   EFERMI =   0.00
   ISMEAR =     0;   SIGMA  =   0.20  broadening in eV -4-tet -1-fermi 0-gaus

 Electronic relaxation 2 (details)
   IALGO  =     38    algorithm
   LDIAG  =      T    sub-space diagonalisation (order eigenvalues)
   LSUBROT=      F    optimize rotation matrix (better conditioning)
   TURBO    =      0    0=normal 1=particle mesh
   IRESTART =      0    0=no restart 2=restart with 2 vectors
   NREBOOT  =      0    no. of reboots
   NMIN     =      0    reboot dimension
   EREF     =   0.00    reference energy to select bands
   IMIX   =      4    mixing-type and parameters
     AMIX     =   0.40;   BMIX     =  1.00
     AMIX_MAG =   1.60;   BMIX_MAG =  1.00
     AMIN     =   0.10
     WC   =   100.;   INIMIX=   1;  MIXPRE=   1;  MAXMIX= -45

 Intra band minimization:
   WEIMIN = 0.0010     energy-eigenvalue tresh-hold
   EBREAK =  0.21E-05  absolut break condition
   DEPER  =   0.30     relativ break condition  

   TIME   =   0.40     timestep for ELM

  volume/ion in A,a.u.               =    4500.00     30367.50
  Fermi-wavevector in a.u.,A,eV,Ry     =   0.137508  0.259852  0.257264  0.018908
  Thomas-Fermi vector in A             =   0.790710
 
 Write flags
   LWAVE  =      F    write WAVECAR
   LCHARG =      F    write CHGCAR
   LVTOT  =      F    write LOCPOT, total local potential
   LVHAR  =      F    write LOCPOT, Hartree potential only
   LELF   =      F    write electronic localiz. function (ELF)
   LORBIT =      0    0 simple, 1 ext, 2 COOP (PROOUT)


 Dipole corrections
   LMONO  =      F    monopole corrections only (constant potential shift)
   LDIPOL =      F    correct potential (dipole corrections)
   IDIPOL =      0    1-x, 2-y, 3-z, 4-all directions 
   EPSILON=  1.0000000 bulk dielectric constant

 Exchange correlation treatment:
   GGA     =    PE    GGA type
   LEXCH   =     8    internal setting for exchange type
   VOSKOWN=      0    Vosko Wilk Nusair interpolation
   LHFCALC =     F    Hartree Fock is set to
   LHFONE  =     F    Hartree Fock one center treatment
   AEXX    =    0.0000 exact exchange contribution

 Linear response parameters
   LEPSILON=     F    determine dielectric tensor
   LRPA    =     F    only Hartree local field effects (RPA)
   LNABLA  =     F    use nabla operator in PAW spheres
   LVEL    =     F    velocity operator in full k-point grid
   LINTERFAST=   F  fast interpolation
   KINTER  =     0    interpolate to denser k-point grid
   CSHIFT  =0.1000    complex shift for real part using Kramers Kronig
   OMEGAMAX=  -1.0    maximum frequency
   DEG_THRESHOLD= 0.2000000E-02 threshold for treating states as degnerate
   RTIME   =    0.100 relaxation time in fs

 Orbital magnetization related:
   ORBITALMAG=     F  switch on orbital magnetization
   LCHIMAG   =     F  perturbation theory with respect to B field
   DQ        =  0.001000  dq finite difference perturbation B field



--------------------------------------------------------------------------------------------------------


 quickmin algorithm: (dynamic with friction)
 charge density and potential will be updated during run
 non-spin polarized calculation
 Variant of blocked Davidson
 Davidson routine will perform the subspace rotation
 perform sub-space diagonalisation
    after iterative eigenvector-optimisation
 modified Broyden-mixing scheme, WC =      100.0
 initial mixing is a Kerker type mixing with AMIX =  0.4000 and BMIX =      1.0000
 Hartree-type preconditioning will be used
 using additional bands            4
 real space projection scheme for non local part
 use partial core corrections
 calculate Harris-corrections to forces 
   (improved forces if not selfconsistent)
 use gradient corrections 
 use of overlap-Matrix (Vanderbilt PP)
 Gauss-broadening in eV      SIGMA  =   0.20


--------------------------------------------------------------------------------------------------------


  energy-cutoff  :      400.00
  volume of cell :    27000.00
      direct lattice vectors                 reciprocal lattice vectors
    30.000000000  0.000000000  0.000000000     0.033333333  0.000000000  0.000000000
     0.000000000 30.000000000  0.000000000     0.000000000  0.033333333  0.000000000
     0.000000000  0.000000000 30.000000000     0.000000000  0.000000000  0.033333333

  length of vectors
    30.000000000 30.000000000 30.000000000     0.033333333  0.033333333  0.033333333


 
 k-points in units of 2pi/SCALE and weight: Mo2C                                    
   0.00833333  0.00833333  0.00833333       0.250
  -0.00833333  0.00833333  0.00833333       0.250
   0.00833333 -0.00833333  0.00833333       0.250
  -0.00833333 -0.00833333  0.00833333       0.250
 
 k-points in reciprocal lattice and weights: Mo2C                                    
   0.25000000  0.25000000  0.25000000       0.250
  -0.25000000  0.25000000  0.25000000       0.250
   0.25000000 -0.25000000  0.25000000       0.250
  -0.25000000 -0.25000000  0.25000000       0.250
 
 position of ions in fractional coordinates (direct lattice) 
   0.47507351  0.46639873  0.50677488
   0.47810277  0.51092293  0.46565419
   0.47288088  0.52381136  0.52382192
   0.48631367  0.50031706  0.49957170
   0.54609168  0.48562571  0.48641193
   0.53958296  0.51152223  0.51659773
 
 position of ions in cartesian coordinates  (Angst):
  14.25220525 13.99196187 15.20324652
  14.34308303 15.32768794 13.96962580
  14.18642653 15.71434093 15.71465759
  14.58941002 15.00951170 14.98715086
  16.38275042 14.56877145 14.59235776
  16.18748882 15.34566684 15.49793200
 


--------------------------------------------------------------------------------------------------------


 k-point  1 :   0.2500 0.2500 0.2500  plane waves:  490454
 k-point  2 :  -0.2500 0.2500 0.2500  plane waves:  490454
 k-point  3 :   0.2500-0.2500 0.2500  plane waves:  490454
 k-point  4 :  -0.2500-0.2500 0.2500  plane waves:  490454

 maximum and minimum number of plane-waves per node :    490454   490454

 maximum number of plane-waves:    490454
 maximum index in each direction: 
   IXMAX=   49   IYMAX=   49   IZMAX=   48
   IXMIN=  -49   IYMIN=  -49   IZMIN=  -49

 WARNING: aliasing errors must be expected set NGX to 198 to avoid them
 WARNING: aliasing errors must be expected set NGY to 198 to avoid them
 WARNING: aliasing errors must be expected set NGZ to 196 to avoid them
 aliasing errors are usually negligible using standard VASP settings
 and one can safely disregard these warnings

 serial   3D FFT for wavefunctions
 parallel 3D FFT for charge:
    minimum data exchange during FFTs selected (reduces bandwidth)


 total amount of memory used by VASP on root node  3203887. kBytes
========================================================================

   base      :      30000. kBytes
   nonlr-proj:        691. kBytes
   fftplans  :     924480. kBytes
   grid      :    1872000. kBytes
   one-center:         18. kBytes
   wavefun   :     376698. kBytes
 
     INWAV:  cpu time    0.0000: real time    0.0007
 Broyden mixing: mesh for mixing (old mesh)
   NGX = 97   NGY = 97   NGZ = 97
  (NGX  =300   NGY  =300   NGZ  =300)
  gives a total of 912673 points

 initial charge density was supplied:
 charge density of overlapping atoms calculated
 number of electron      16.0000000 magnetization 
 keeping initial charge density in first step


--------------------------------------------------------------------------------------------------------


 Maximum index for non-local projection operator         2269
 Maximum index for augmentation-charges         1484 (set IRDMAX)


--------------------------------------------------------------------------------------------------------


 First call to EWALD:  gamma=   0.059
 Maximum number of real-space cells 3x 3x 3
 Maximum number of reciprocal cells 3x 3x 3

 FEWALD executed in parallel
    FEWALD:  cpu time    0.0020: real time    0.0018


----------------------------------------- Iteration    1(   1)  ---------------------------------------


    POTLOK:  cpu time   17.2514: real time   17.2997
    SETDIJ:  cpu time    0.0060: real time    0.0065
     EDDAV:  cpu time   83.2124: real time   83.4454
       DOS:  cpu time    0.0000: real time    0.0002
    --------------------------------------------
      LOOP:  cpu time  100.4737: real time  100.7568

 eigenvalue-minimisations  :   160
 total energy-change (2. order) : 0.1073203E+03  (-0.2129506E+03)
 number of electron      16.0000000 magnetization 
 augmentation part       16.0000000 magnetization 

 Free energy of the ion-electron system (eV)
  ---------------------------------------------------
  alpha Z        PSCENC =         0.04144063
  Ewald energy   TEWEN  =       703.91852956
  -Hartree energ DENC   =     -1125.26019318
  -exchange      EXHF   =         0.00000000
  -V(xc)+E(xc)   XCENC  =        51.12297673
  PAW double counting   =       428.37890668     -430.73533574
  entropy T*S    EENTRO =        -0.22685248
  eigenvalues    EBANDS =      -116.08450566
  atomic energy  EATOM  =       596.16534815
  Solvation  Ediel_sol  =         0.00000000
  ---------------------------------------------------
  free energy    TOTEN  =       107.32031469 eV

  energy without entropy =      107.54716717  energy(sigma->0) =      107.43374093


--------------------------------------------------------------------------------------------------------




----------------------------------------- Iteration    1(   2)  ---------------------------------------


     EDDAV:  cpu time   97.9901: real time   98.2553
       DOS:  cpu time    0.0000: real time    0.0002
    --------------------------------------------
      LOOP:  cpu time   97.9911: real time   98.2589

 eigenvalue-minimisations  :   192
 total energy-change (2. order) :-0.1079857E+03  (-0.1044045E+03)
 number of electron      16.0000000 magnetization 
 augmentation part       16.0000000 magnetization 

 Free energy of the ion-electron system (eV)
  ---------------------------------------------------
  alpha Z        PSCENC =         0.04144063
  Ewald energy   TEWEN  =       703.91852956
  -Hartree energ DENC   =     -1125.26019318
  -exchange      EXHF   =         0.00000000
  -V(xc)+E(xc)   XCENC  =        51.12297673
  PAW double counting   =       428.37890668     -430.73533574
  entropy T*S    EENTRO =         0.00000000
  eigenvalues    EBANDS =      -224.29707032
  atomic energy  EATOM  =       596.16534815
  Solvation  Ediel_sol  =         0.00000000
  ---------------------------------------------------
  free energy    TOTEN  =        -0.66539749 eV

  energy without entropy =       -0.66539749  energy(sigma->0) =       -0.66539749


--------------------------------------------------------------------------------------------------------




----------------------------------------- Iteration    1(   3)  ---------------------------------------


     EDDAV:  cpu time   69.4324: real time   69.6312
       DOS:  cpu time    0.0000: real time    0.0002
    --------------------------------------------
      LOOP:  cpu time   69.4334: real time   69.6353

 eigenvalue-minimisations  :   128
 total energy-change (2. order) :-0.3300881E+02  (-0.3291937E+02)
 number of electron      16.0000000 magnetization 
 augmentation part       16.0000000 magnetization 

 Free energy of the ion-electron system (eV)
  ---------------------------------------------------
  alpha Z        PSCENC =         0.04144063
  Ewald energy   TEWEN  =       703.91852956
  -Hartree energ DENC   =     -1125.26019318
  -exchange      EXHF   =         0.00000000
  -V(xc)+E(xc)   XCENC  =        51.12297673
  PAW double counting   =       428.37890668     -430.73533574
  entropy T*S    EENTRO =         0.00000000
  eigenvalues    EBANDS =      -257.30587945
  atomic energy  EATOM  =       596.16534815
  Solvation  Ediel_sol  =         0.00000000
  ---------------------------------------------------
  free energy    TOTEN  =       -33.67420662 eV

  energy without entropy =      -33.67420662  energy(sigma->0) =      -33.67420662


--------------------------------------------------------------------------------------------------------




----------------------------------------- Iteration    1(   4)  ---------------------------------------


     EDDAV:  cpu time   69.4854: real time   69.6702
       DOS:  cpu time    0.0000: real time    0.0001
    --------------------------------------------
      LOOP:  cpu time   69.4884: real time   69.6746

 eigenvalue-minimisations  :   128
 total energy-change (2. order) :-0.3140737E+01  (-0.3106460E+01)
 number of electron      16.0000000 magnetization 
 augmentation part       16.0000000 magnetization 

 Free energy of the ion-electron system (eV)
  ---------------------------------------------------
  alpha Z        PSCENC =         0.04144063
  Ewald energy   TEWEN  =       703.91852956
  -Hartree energ DENC   =     -1125.26019318
  -exchange      EXHF   =         0.00000000
  -V(xc)+E(xc)   XCENC  =        51.12297673
  PAW double counting   =       428.37890668     -430.73533574
  entropy T*S    EENTRO =         0.00000000
  eigenvalues    EBANDS =      -260.44661659
  atomic energy  EATOM  =       596.16534815
  Solvation  Ediel_sol  =         0.00000000
  ---------------------------------------------------
  free energy    TOTEN  =       -36.81494376 eV

  energy without entropy =      -36.81494376  energy(sigma->0) =      -36.81494376


--------------------------------------------------------------------------------------------------------




----------------------------------------- Iteration    1(   5)  ---------------------------------------


     EDDAV:  cpu time   66.0190: real time   66.2073
       DOS:  cpu time    0.0000: real time    0.0002
    CHARGE:  cpu time    5.0852: real time    5.1007
    MIXING:  cpu time    0.4979: real time    0.5001
    --------------------------------------------
      LOOP:  cpu time   71.6041: real time   71.8114

 eigenvalue-minimisations  :   124
 total energy-change (2. order) :-0.9297751E-01  (-0.9131276E-01)
 number of electron      16.0000001 magnetization 
 augmentation part        0.4322008 magnetization 

 Broyden mixing:
  rms(total) = 0.10395E+01    rms(broyden)= 0.10375E+01
  rms(prec ) = 0.10703E+01
  weight for this iteration     100.00

 Free energy of the ion-electron system (eV)
  ---------------------------------------------------
  alpha Z        PSCENC =         0.04144063
  Ewald energy   TEWEN  =       703.91852956
  -Hartree energ DENC   =     -1125.26019318
  -exchange      EXHF   =         0.00000000
  -V(xc)+E(xc)   XCENC  =        51.12297673
  PAW double counting   =       428.37890668     -430.73533574
  entropy T*S    EENTRO =         0.00000000
  eigenvalues    EBANDS =      -260.53959411
  atomic energy  EATOM  =       596.16534815
  Solvation  Ediel_sol  =         0.00000000
  ---------------------------------------------------
  free energy    TOTEN  =       -36.90792128 eV

  energy without entropy =      -36.90792128  energy(sigma->0) =      -36.90792128


--------------------------------------------------------------------------------------------------------




----------------------------------------- Iteration    1(   6)  ---------------------------------------


    POTLOK:  cpu time   16.7814: real time   16.8303
    SETDIJ:  cpu time    0.0070: real time    0.0062
     EDDAV:  cpu time   58.2811: real time   58.4183
       DOS:  cpu time    0.0000: real time    0.0002
    CHARGE:  cpu time    5.1572: real time    5.1696
    MIXING:  cpu time    0.5699: real time    0.5707
    --------------------------------------------
      LOOP:  cpu time   80.7987: real time   80.9995

 eigenvalue-minimisations  :   108
 total energy-change (2. order) : 0.2256280E+01  (-0.3542010E+00)
 number of electron      16.0000002 magnetization 
 augmentation part        0.3925815 magnetization 

 Broyden mixing:
  rms(total) = 0.56018E+00    rms(broyden)= 0.56007E+00
  rms(prec ) = 0.57435E+00
  weight for this iteration     100.00

 eigenvalues of (default mixing * dielectric matrix)
  average eigenvalue GAMMA=   1.6496
  1.6496

 Free energy of the ion-electron system (eV)
  ---------------------------------------------------
  alpha Z        PSCENC =         0.04144063
  Ewald energy   TEWEN  =       703.91852956
  -Hartree energ DENC   =     -1151.15855090
  -exchange      EXHF   =         0.00000000
  -V(xc)+E(xc)   XCENC  =        52.61220306
  PAW double counting   =       674.14939772     -676.75315813
  entropy T*S    EENTRO =         0.00000000
  eigenvalues    EBANDS =      -233.62685163
  atomic energy  EATOM  =       596.16534815
  Solvation  Ediel_sol  =         0.00000000
  ---------------------------------------------------
  free energy    TOTEN  =       -34.65164153 eV

  energy without entropy =      -34.65164153  energy(sigma->0) =      -34.65164153


--------------------------------------------------------------------------------------------------------




----------------------------------------- Iteration    1(   7)  ---------------------------------------


    POTLOK:  cpu time   17.0434: real time   17.0914
    SETDIJ:  cpu time    0.0060: real time    0.0062
     EDDAV:  cpu time   63.6603: real time   63.8342
       DOS:  cpu time    0.0000: real time    0.0002
    CHARGE:  cpu time    5.0382: real time    5.0516
    MIXING:  cpu time    0.5989: real time    0.6012
    --------------------------------------------
      LOOP:  cpu time   86.3479: real time   86.5882

 eigenvalue-minimisations  :   120
 total energy-change (2. order) : 0.5983844E+00  (-0.1458305E+00)
 number of electron      16.0000002 magnetization 
 augmentation part        0.3841749 magnetization 

 Broyden mixing:
  rms(total) = 0.20691E+00    rms(broyden)= 0.20686E+00
  rms(prec ) = 0.21187E+00
  weight for this iteration     100.00

 eigenvalues of (default mixing * dielectric matrix)
  average eigenvalue GAMMA=   1.5819
  1.0388  2.1251

 Free energy of the ion-electron system (eV)
  ---------------------------------------------------
  alpha Z        PSCENC =         0.04144063
  Ewald energy   TEWEN  =       703.91852956
  -Hartree energ DENC   =     -1169.93869666
  -exchange      EXHF   =         0.00000000
  -V(xc)+E(xc)   XCENC  =        53.78871845
  PAW double counting   =       985.25467321     -987.99105360
  entropy T*S    EENTRO =         0.00000000
  eigenvalues    EBANDS =      -215.29221690
  atomic energy  EATOM  =       596.16534815
  Solvation  Ediel_sol  =         0.00000000
  ---------------------------------------------------
  free energy    TOTEN  =       -34.05325715 eV

  energy without entropy =      -34.05325715  energy(sigma->0) =      -34.05325715


--------------------------------------------------------------------------------------------------------




----------------------------------------- Iteration    1(   8)  ---------------------------------------


    POTLOK:  cpu time   16.9554: real time   17.0039
    SETDIJ:  cpu time    0.0060: real time    0.0062
     EDDAV:  cpu time   68.2356: real time   68.4223
       DOS:  cpu time    0.0000: real time    0.0002
    CHARGE:  cpu time    4.8333: real time    4.8473
    MIXING:  cpu time    0.6169: real time    0.6180
    --------------------------------------------
      LOOP:  cpu time   90.6502: real time   90.9016

 eigenvalue-minimisations  :   128
 total energy-change (2. order) : 0.6058383E-01  (-0.1148182E-01)
 number of electron      16.0000002 magnetization 
 augmentation part        0.3770396 magnetization 

 Broyden mixing:
  rms(total) = 0.77040E-01    rms(broyden)= 0.77019E-01
  rms(prec ) = 0.80630E-01
  weight for this iteration     100.00

 eigenvalues of (default mixing * dielectric matrix)
  average eigenvalue GAMMA=   1.5986
  2.3413  0.8500  1.6046

 Free energy of the ion-electron system (eV)
  ---------------------------------------------------
  alpha Z        PSCENC =         0.04144063
  Ewald energy   TEWEN  =       703.91852956
  -Hartree energ DENC   =     -1176.00865076
  -exchange      EXHF   =         0.00000000
  -V(xc)+E(xc)   XCENC  =        54.18852044
  PAW double counting   =      1129.32931525    -1132.07592648
  entropy T*S    EENTRO =         0.00000000
  eigenvalues    EBANDS =      -209.55125010
  atomic energy  EATOM  =       596.16534815
  Solvation  Ediel_sol  =         0.00000000
  ---------------------------------------------------
  free energy    TOTEN  =       -33.99267332 eV

  energy without entropy =      -33.99267332  energy(sigma->0) =      -33.99267332


--------------------------------------------------------------------------------------------------------




----------------------------------------- Iteration    1(   9)  ---------------------------------------


    POTLOK:  cpu time   16.4585: real time   16.5048
    SETDIJ:  cpu time    0.0060: real time    0.0063
     EDDAV:  cpu time   68.7545: real time   68.9529
       DOS:  cpu time    0.0000: real time    0.0002
    CHARGE:  cpu time    4.6833: real time    4.6956
    MIXING:  cpu time    0.6489: real time    0.6516
    --------------------------------------------
      LOOP:  cpu time   90.5512: real time   90.8154

 eigenvalue-minimisations  :   128
 total energy-change (2. order) : 0.1391972E-01  (-0.2012311E-02)
 number of electron      16.0000002 magnetization 
 augmentation part        0.3774397 magnetization 

 Broyden mixing:
  rms(total) = 0.20910E-01    rms(broyden)= 0.20901E-01
  rms(prec ) = 0.25647E-01
  weight for this iteration     100.00

 eigenvalues of (default mixing * dielectric matrix)
  average eigenvalue GAMMA=   1.5038
  2.2483  1.7932  0.9343  1.0395

 Free energy of the ion-electron system (eV)
  ---------------------------------------------------
  alpha Z        PSCENC =         0.04144063
  Ewald energy   TEWEN  =       703.91852956
  -Hartree energ DENC   =     -1177.30204973
  -exchange      EXHF   =         0.00000000
  -V(xc)+E(xc)   XCENC  =        54.25575050
  PAW double counting   =      1175.55919683    -1178.27804935
  entropy T*S    EENTRO =         0.00000000
  eigenvalues    EBANDS =      -208.33892018
  atomic energy  EATOM  =       596.16534815
  Solvation  Ediel_sol  =         0.00000000
  ---------------------------------------------------
  free energy    TOTEN  =       -33.97875360 eV

  energy without entropy =      -33.97875360  energy(sigma->0) =      -33.97875360


--------------------------------------------------------------------------------------------------------




----------------------------------------- Iteration    1(  10)  ---------------------------------------


    POTLOK:  cpu time   16.1106: real time   16.1540
    SETDIJ:  cpu time    0.0060: real time    0.0061
     EDDAV:  cpu time   69.5124: real time   69.7008
       DOS:  cpu time    0.0000: real time    0.0002
    CHARGE:  cpu time    4.7583: real time    4.7705
    MIXING:  cpu time    0.6949: real time    0.6977
    --------------------------------------------
      LOOP:  cpu time   91.0842: real time   91.3332

 eigenvalue-minimisations  :   128
 total energy-change (2. order) : 0.3540508E-03  (-0.2613569E-03)
 number of electron      16.0000002 magnetization 
 augmentation part        0.3782363 magnetization 

 Broyden mixing:
  rms(total) = 0.11470E-01    rms(broyden)= 0.11467E-01
  rms(prec ) = 0.16404E-01
  weight for this iteration     100.00

 eigenvalues of (default mixing * dielectric matrix)
  average eigenvalue GAMMA=   1.5104
  2.1572  2.1572  0.9117  0.9117  1.4143

 Free energy of the ion-electron system (eV)
  ---------------------------------------------------
  alpha Z        PSCENC =         0.04144063
  Ewald energy   TEWEN  =       703.91852956
  -Hartree energ DENC   =     -1178.11191597
  -exchange      EXHF   =         0.00000000
  -V(xc)+E(xc)   XCENC  =        54.27000324
  PAW double counting   =      1173.02624200    -1175.74091359
  entropy T*S    EENTRO =         0.00000000
  eigenvalues    EBANDS =      -207.54713357
  atomic energy  EATOM  =       596.16534815
  Solvation  Ediel_sol  =         0.00000000
  ---------------------------------------------------
  free energy    TOTEN  =       -33.97839955 eV

  energy without entropy =      -33.97839955  energy(sigma->0) =      -33.97839955


--------------------------------------------------------------------------------------------------------




----------------------------------------- Iteration    1(  11)  ---------------------------------------


    POTLOK:  cpu time   15.9016: real time   15.9449
    SETDIJ:  cpu time    0.0060: real time    0.0062
     EDDAV:  cpu time   68.4786: real time   68.6278
       DOS:  cpu time    0.0000: real time    0.0002
    CHARGE:  cpu time    4.9293: real time    4.9396
    MIXING:  cpu time    0.7289: real time    0.7294
    --------------------------------------------
      LOOP:  cpu time   90.0463: real time   90.2514

 eigenvalue-minimisations  :   128
 total energy-change (2. order) :-0.1405892E-02  (-0.1226477E-03)
 number of electron      16.0000002 magnetization 
 augmentation part        0.3777702 magnetization 

 Broyden mixing:
  rms(total) = 0.71889E-02    rms(broyden)= 0.71878E-02
  rms(prec ) = 0.11219E-01
  weight for this iteration     100.00

 eigenvalues of (default mixing * dielectric matrix)
  average eigenvalue GAMMA=   1.6925
  3.1164  2.4718  1.3326  1.3326  0.9509  0.9509

 Free energy of the ion-electron system (eV)
  ---------------------------------------------------
  alpha Z        PSCENC =         0.04144063
  Ewald energy   TEWEN  =       703.91852956
  -Hartree energ DENC   =     -1179.22025630
  -exchange      EXHF   =         0.00000000
  -V(xc)+E(xc)   XCENC  =        54.29943381
  PAW double counting   =      1170.16142984    -1172.87516191
  entropy T*S    EENTRO =         0.00000000
  eigenvalues    EBANDS =      -206.47056923
  atomic energy  EATOM  =       596.16534815
  Solvation  Ediel_sol  =         0.00000000
  ---------------------------------------------------
  free energy    TOTEN  =       -33.97980544 eV

  energy without entropy =      -33.97980544  energy(sigma->0) =      -33.97980544


--------------------------------------------------------------------------------------------------------




----------------------------------------- Iteration    1(  12)  ---------------------------------------


    POTLOK:  cpu time   15.8796: real time   15.9125
    SETDIJ:  cpu time    0.0070: real time    0.0062
     EDDAV:  cpu time   68.1416: real time   68.2806
       DOS:  cpu time    0.0000: real time    0.0002
    CHARGE:  cpu time    4.9432: real time    4.9544
    MIXING:  cpu time    0.8349: real time    0.8364
    --------------------------------------------
      LOOP:  cpu time   89.8083: real time   89.9940

 eigenvalue-minimisations  :   128
 total energy-change (2. order) :-0.4345084E-02  (-0.2120713E-03)
 number of electron      16.0000002 magnetization 
 augmentation part        0.3774896 magnetization 

 Broyden mixing:
  rms(total) = 0.38322E-02    rms(broyden)= 0.38295E-02
  rms(prec ) = 0.59873E-02
  weight for this iteration     100.00

 eigenvalues of (default mixing * dielectric matrix)
  average eigenvalue GAMMA=   1.8381
  3.9376  2.2272  2.2272  0.9385  0.9385  1.4273  1.1705

 Free energy of the ion-electron system (eV)
  ---------------------------------------------------
  alpha Z        PSCENC =         0.04144063
  Ewald energy   TEWEN  =       703.91852956
  -Hartree energ DENC   =     -1180.61809663
  -exchange      EXHF   =         0.00000000
  -V(xc)+E(xc)   XCENC  =        54.33031740
  PAW double counting   =      1166.85017678    -1169.56074686
  entropy T*S    EENTRO =         0.00000000
  eigenvalues    EBANDS =      -205.11111956
  atomic energy  EATOM  =       596.16534815
  Solvation  Ediel_sol  =         0.00000000
  ---------------------------------------------------
  free energy    TOTEN  =       -33.98415053 eV

  energy without entropy =      -33.98415053  energy(sigma->0) =      -33.98415053


--------------------------------------------------------------------------------------------------------




----------------------------------------- Iteration    1(  13)  ---------------------------------------


    POTLOK:  cpu time   16.2795: real time   16.3121
    SETDIJ:  cpu time    0.0060: real time    0.0062
     EDDAV:  cpu time   81.5336: real time   81.6957
       DOS:  cpu time    0.0000: real time    0.0002
    CHARGE:  cpu time    5.0022: real time    5.0119
    MIXING:  cpu time    0.8469: real time    0.8492
    --------------------------------------------
      LOOP:  cpu time  103.6692: real time  103.8793

 eigenvalue-minimisations  :   160
 total energy-change (2. order) :-0.5857922E-02  (-0.1314655E-03)
 number of electron      16.0000002 magnetization 
 augmentation part        0.3772958 magnetization 

 Broyden mixing:
  rms(total) = 0.24601E-02    rms(broyden)= 0.24582E-02
  rms(prec ) = 0.35300E-02
  weight for this iteration     100.00

 eigenvalues of (default mixing * dielectric matrix)
  average eigenvalue GAMMA=   1.9017
  4.8712  2.6182  2.1961  1.5170  1.2595  0.9547  0.9547  0.8426

 Free energy of the ion-electron system (eV)
  ---------------------------------------------------
  alpha Z        PSCENC =         0.04144063
  Ewald energy   TEWEN  =       703.91852956
  -Hartree energ DENC   =     -1181.28884354
  -exchange      EXHF   =         0.00000000
  -V(xc)+E(xc)   XCENC  =        54.33844426
  PAW double counting   =      1166.19017550    -1168.90134100
  entropy T*S    EENTRO =         0.00000000
  eigenvalues    EBANDS =      -204.45376200
  atomic energy  EATOM  =       596.16534815
  Solvation  Ediel_sol  =         0.00000000
  ---------------------------------------------------
  free energy    TOTEN  =       -33.99000845 eV

  energy without entropy =      -33.99000845  energy(sigma->0) =      -33.99000845


--------------------------------------------------------------------------------------------------------




----------------------------------------- Iteration    1(  14)  ---------------------------------------


    POTLOK:  cpu time   16.4935: real time   16.5269
    SETDIJ:  cpu time    0.0070: real time    0.0061
     EDDAV:  cpu time   68.4956: real time   68.6330
       DOS:  cpu time    0.0000: real time    0.0002
    CHARGE:  cpu time    4.8893: real time    4.8995
    MIXING:  cpu time    0.9639: real time    0.9663
    --------------------------------------------
      LOOP:  cpu time   90.8512: real time   91.0361

 eigenvalue-minimisations  :   128
 total energy-change (2. order) :-0.2760476E-02  (-0.2496877E-04)
 number of electron      16.0000002 magnetization 
 augmentation part        0.3772873 magnetization 

 Broyden mixing:
  rms(total) = 0.14243E-02    rms(broyden)= 0.14242E-02
  rms(prec ) = 0.21336E-02
  weight for this iteration     100.00

 eigenvalues of (default mixing * dielectric matrix)
  average eigenvalue GAMMA=   1.9189
  5.1152  2.8030  2.3042  1.7353  1.2876  1.2876  0.9398  0.9398  0.8581

 Free energy of the ion-electron system (eV)
  ---------------------------------------------------
  alpha Z        PSCENC =         0.04144063
  Ewald energy   TEWEN  =       703.91852956
  -Hartree energ DENC   =     -1181.45102424
  -exchange      EXHF   =         0.00000000
  -V(xc)+E(xc)   XCENC  =        54.33360703
  PAW double counting   =      1164.94763453    -1167.65835549
  entropy T*S    EENTRO =         0.00000000
  eigenvalues    EBANDS =      -204.28994909
  atomic energy  EATOM  =       596.16534815
  Solvation  Ediel_sol  =         0.00000000
  ---------------------------------------------------
  free energy    TOTEN  =       -33.99276892 eV

  energy without entropy =      -33.99276892  energy(sigma->0) =      -33.99276892


--------------------------------------------------------------------------------------------------------




----------------------------------------- Iteration    1(  15)  ---------------------------------------


    POTLOK:  cpu time   16.8174: real time   16.8520
    SETDIJ:  cpu time    0.0060: real time    0.0062
     EDDAV:  cpu time   67.7897: real time   67.9250
       DOS:  cpu time    0.0000: real time    0.0002
    CHARGE:  cpu time    4.8923: real time    4.9031
    MIXING:  cpu time    1.0198: real time    1.0224
    --------------------------------------------
      LOOP:  cpu time   90.5282: real time   90.7119

 eigenvalue-minimisations  :   128
 total energy-change (2. order) :-0.2050039E-02  (-0.1426399E-04)
 number of electron      16.0000002 magnetization 
 augmentation part        0.3772645 magnetization 

 Broyden mixing:
  rms(total) = 0.85284E-03    rms(broyden)= 0.85271E-03
  rms(prec ) = 0.13554E-02
  weight for this iteration     100.00

 eigenvalues of (default mixing * dielectric matrix)
  average eigenvalue GAMMA=   2.0903
  6.6504  3.3610  2.3396  1.9907  1.5357  1.2964  0.9744  0.9744  0.8904  0.8904

 Free energy of the ion-electron system (eV)
  ---------------------------------------------------
  alpha Z        PSCENC =         0.04144063
  Ewald energy   TEWEN  =       703.91852956
  -Hartree energ DENC   =     -1181.50027098
  -exchange      EXHF   =         0.00000000
  -V(xc)+E(xc)   XCENC  =        54.33059275
  PAW double counting   =      1165.47687200    -1168.18752360
  entropy T*S    EENTRO =         0.00000000
  eigenvalues    EBANDS =      -204.23980747
  atomic energy  EATOM  =       596.16534815
  Solvation  Ediel_sol  =         0.00000000
  ---------------------------------------------------
  free energy    TOTEN  =       -33.99481896 eV

  energy without entropy =      -33.99481896  energy(sigma->0) =      -33.99481896


--------------------------------------------------------------------------------------------------------




----------------------------------------- Iteration    1(  16)  ---------------------------------------


    POTLOK:  cpu time   16.7495: real time   16.7829
    SETDIJ:  cpu time    0.0060: real time    0.0062
     EDDAV:  cpu time   67.9997: real time   68.1365
       DOS:  cpu time    0.0000: real time    0.0002
    CHARGE:  cpu time    5.0892: real time    5.0994
    MIXING:  cpu time    1.1238: real time    1.1266
    --------------------------------------------
      LOOP:  cpu time   90.9692: real time   91.1550

 eigenvalue-minimisations  :   128
 total energy-change (2. order) :-0.1636310E-02  (-0.1506918E-04)
 number of electron      16.0000002 magnetization 
 augmentation part        0.3772568 magnetization 

 Broyden mixing:
  rms(total) = 0.48947E-03    rms(broyden)= 0.48930E-03
  rms(prec ) = 0.71644E-03
  weight for this iteration     100.00

 eigenvalues of (default mixing * dielectric matrix)
  average eigenvalue GAMMA=   2.2250
  7.4165  3.8986  2.6450  2.4338  1.5166  1.4226  1.4226  0.9720  0.9720  0.9203
  0.8554

 Free energy of the ion-electron system (eV)
  ---------------------------------------------------
  alpha Z        PSCENC =         0.04144063
  Ewald energy   TEWEN  =       703.91852956
  -Hartree energ DENC   =     -1181.56983476
  -exchange      EXHF   =         0.00000000
  -V(xc)+E(xc)   XCENC  =        54.32820311
  PAW double counting   =      1165.45097015    -1168.16165659
  entropy T*S    EENTRO =         0.00000000
  eigenvalues    EBANDS =      -204.16945554
  atomic energy  EATOM  =       596.16534815
  Solvation  Ediel_sol  =         0.00000000
  ---------------------------------------------------
  free energy    TOTEN  =       -33.99645527 eV

  energy without entropy =      -33.99645527  energy(sigma->0) =      -33.99645527


--------------------------------------------------------------------------------------------------------




----------------------------------------- Iteration    1(  17)  ---------------------------------------


    POTLOK:  cpu time   16.7415: real time   16.7755
    SETDIJ:  cpu time    0.0060: real time    0.0062
     EDDAV:  cpu time   54.2148: real time   54.3243
       DOS:  cpu time    0.0000: real time    0.0002
    CHARGE:  cpu time    4.9842: real time    4.9947
    MIXING:  cpu time    1.0948: real time    1.0968
    --------------------------------------------
      LOOP:  cpu time   77.0423: real time   77.2011

 eigenvalue-minimisations  :    96
 total energy-change (2. order) :-0.8414274E-03  (-0.4313338E-05)
 number of electron      16.0000002 magnetization 
 augmentation part        0.3772553 magnetization 

 Broyden mixing:
  rms(total) = 0.28339E-03    rms(broyden)= 0.28331E-03
  rms(prec ) = 0.37477E-03
  weight for this iteration     100.00

 eigenvalues of (default mixing * dielectric matrix)
  average eigenvalue GAMMA=   2.2481
  7.8778  4.3713  2.7810  2.3372  1.9079  1.6296  1.2841  1.0170  1.0170  0.9559
  0.9559  0.8422

 Free energy of the ion-electron system (eV)
  ---------------------------------------------------
  alpha Z        PSCENC =         0.04144063
  Ewald energy   TEWEN  =       703.91852956
  -Hartree energ DENC   =     -1181.57317619
  -exchange      EXHF   =         0.00000000
  -V(xc)+E(xc)   XCENC  =        54.32663191
  PAW double counting   =      1165.50444019    -1168.21506306
  entropy T*S    EENTRO =         0.00000000
  eigenvalues    EBANDS =      -204.16544789
  atomic energy  EATOM  =       596.16534815
  Solvation  Ediel_sol  =         0.00000000
  ---------------------------------------------------
  free energy    TOTEN  =       -33.99729670 eV

  energy without entropy =      -33.99729670  energy(sigma->0) =      -33.99729670


--------------------------------------------------------------------------------------------------------




----------------------------------------- Iteration    1(  18)  ---------------------------------------


    POTLOK:  cpu time   16.6815: real time   16.7156
    SETDIJ:  cpu time    0.0060: real time    0.0062
     EDDAV:  cpu time   55.3006: real time   55.4126
       DOS:  cpu time    0.0000: real time    0.0002
    CHARGE:  cpu time    4.7213: real time    4.7307
    MIXING:  cpu time    1.0758: real time    1.0783
    --------------------------------------------
      LOOP:  cpu time   77.7862: real time   77.9471

 eigenvalue-minimisations  :    96
 total energy-change (2. order) :-0.2178734E-03  (-0.1664554E-05)
 number of electron      16.0000002 magnetization 
 augmentation part        0.3772557 magnetization 

 Broyden mixing:
  rms(total) = 0.17150E-03    rms(broyden)= 0.17148E-03
  rms(prec ) = 0.23194E-03
  weight for this iteration     100.00

 eigenvalues of (default mixing * dielectric matrix)
  average eigenvalue GAMMA=   2.3057
  8.2067  5.1208  2.6817  2.6817  2.1846  1.5328  1.3901  1.3901  1.0858  0.9655
  0.9655  0.9134  0.8551

 Free energy of the ion-electron system (eV)
  ---------------------------------------------------
  alpha Z        PSCENC =         0.04144063
  Ewald energy   TEWEN  =       703.91852956
  -Hartree energ DENC   =     -1181.57282885
  -exchange      EXHF   =         0.00000000
  -V(xc)+E(xc)   XCENC  =        54.32626003
  PAW double counting   =      1165.54662471    -1168.25723415
  entropy T*S    EENTRO =         0.00000000
  eigenvalues    EBANDS =      -204.16565466
  atomic energy  EATOM  =       596.16534815
  Solvation  Ediel_sol  =         0.00000000
  ---------------------------------------------------
  free energy    TOTEN  =       -33.99751457 eV

  energy without entropy =      -33.99751457  energy(sigma->0) =      -33.99751457


--------------------------------------------------------------------------------------------------------




----------------------------------------- Iteration    1(  19)  ---------------------------------------


    POTLOK:  cpu time   16.1345: real time   16.1680
    SETDIJ:  cpu time    0.0060: real time    0.0061
     EDDAV:  cpu time   55.6725: real time   55.7851
       DOS:  cpu time    0.0000: real time    0.0002
    CHARGE:  cpu time    4.9532: real time    4.9630
    MIXING:  cpu time    1.2298: real time    1.2329
    --------------------------------------------
      LOOP:  cpu time   77.9991: real time   78.1594

 eigenvalue-minimisations  :    96
 total energy-change (2. order) :-0.1455189E-03  (-0.8358876E-06)
 number of electron      16.0000002 magnetization 
 augmentation part        0.3772458 magnetization 

 Broyden mixing:
  rms(total) = 0.85624E-04    rms(broyden)= 0.85594E-04
  rms(prec ) = 0.12201E-03
  weight for this iteration     100.00

 eigenvalues of (default mixing * dielectric matrix)
  average eigenvalue GAMMA=   2.3575
  8.7689  5.2318  3.5806  2.5395  2.0486  2.0486  1.5570  1.2474  1.2474  1.0555
  0.9640  0.9640  0.9063  0.8460

 Free energy of the ion-electron system (eV)
  ---------------------------------------------------
  alpha Z        PSCENC =         0.04144063
  Ewald energy   TEWEN  =       703.91852956
  -Hartree energ DENC   =     -1181.56863899
  -exchange      EXHF   =         0.00000000
  -V(xc)+E(xc)   XCENC  =        54.32585838
  PAW double counting   =      1165.47895907    -1168.18958993
  entropy T*S    EENTRO =         0.00000000
  eigenvalues    EBANDS =      -204.16956696
  atomic energy  EATOM  =       596.16534815
  Solvation  Ediel_sol  =         0.00000000
  ---------------------------------------------------
  free energy    TOTEN  =       -33.99766009 eV

  energy without entropy =      -33.99766009  energy(sigma->0) =      -33.99766009


--------------------------------------------------------------------------------------------------------




----------------------------------------- Iteration    1(  20)  ---------------------------------------


    POTLOK:  cpu time   15.7406: real time   15.7715
    SETDIJ:  cpu time    0.0070: real time    0.0063
     EDDAV:  cpu time   54.7207: real time   54.8310
       DOS:  cpu time    0.0000: real time    0.0002
    --------------------------------------------
      LOOP:  cpu time   70.4693: real time   70.6126

 eigenvalue-minimisations  :    96
 total energy-change (2. order) :-0.7419538E-04  (-0.3128500E-06)
 number of electron      16.0000002 magnetization 
 augmentation part        0.3772458 magnetization 

 Free energy of the ion-electron system (eV)
  ---------------------------------------------------
  alpha Z        PSCENC =         0.04144063
  Ewald energy   TEWEN  =       703.91852956
  -Hartree energ DENC   =     -1181.57280865
  -exchange      EXHF   =         0.00000000
  -V(xc)+E(xc)   XCENC  =        54.32580632
  PAW double counting   =      1165.42882100    -1168.13942689
  entropy T*S    EENTRO =         0.00000000
  eigenvalues    EBANDS =      -204.16544441
  atomic energy  EATOM  =       596.16534815
  Solvation  Ediel_sol  =         0.00000000
  ---------------------------------------------------
  free energy    TOTEN  =       -33.99773429 eV

  energy without entropy =      -33.99773429  energy(sigma->0) =      -33.99773429


--------------------------------------------------------------------------------------------------------




 average (electrostatic) potential at core
  the test charge radii are     0.5201  0.6991  0.7089
  (the norm of the test charge is              1.0000)
       1 -43.1035       2 -43.1222       3 -43.2650       4 -60.7138       5 -59.9474
       6 -74.3012
 
 
 
 E-fermi :  -6.3460     XC(G=0):  -0.0889     alpha+bet : -0.0137


 k-point     1 :       0.2500    0.2500    0.2500
  band No.  band energies     occupation 
      1     -24.1707      2.00000
      2     -17.8118      2.00000
      3     -12.5929      2.00000
      4     -11.6181      2.00000
      5     -10.9026      2.00000
      6      -9.3980      2.00000
      7      -8.3071      2.00000
      8      -7.2816      2.00000
      9      -1.4230      0.00000
     10      -1.0072      0.00000
     11      -0.8551      0.00000
     12      -0.2491      0.00000

 k-point     2 :      -0.2500    0.2500    0.2500
  band No.  band energies     occupation 
      1     -24.1707      2.00000
      2     -17.8118      2.00000
      3     -12.5929      2.00000
      4     -11.6181      2.00000
      5     -10.9026      2.00000
      6      -9.3979      2.00000
      7      -8.3071      2.00000
      8      -7.2816      2.00000
      9      -1.4230      0.00000
     10      -1.0072      0.00000
     11      -0.8551      0.00000
     12      -0.2491      0.00000

 k-point     3 :       0.2500   -0.2500    0.2500
  band No.  band energies     occupation 
      1     -24.1707      2.00000
      2     -17.8118      2.00000
      3     -12.5929      2.00000
      4     -11.6181      2.00000
      5     -10.9026      2.00000
      6      -9.3980      2.00000
      7      -8.3071      2.00000
      8      -7.2816      2.00000
      9      -1.4230      0.00000
     10      -1.0072      0.00000
     11      -0.8551      0.00000
     12      -0.2491      0.00000

 k-point     4 :      -0.2500   -0.2500    0.2500
  band No.  band energies     occupation 
      1     -24.1707      2.00000
      2     -17.8118      2.00000
      3     -12.5929      2.00000
      4     -11.6181      2.00000
      5     -10.9026      2.00000
      6      -9.3979      2.00000
      7      -8.3071      2.00000
      8      -7.2816      2.00000
      9      -1.4230      0.00000
     10      -1.0072      0.00000
     11      -0.8551      0.00000
     12      -0.2491      0.00000


--------------------------------------------------------------------------------------------------------


 soft charge-density along one line, spin component           1
         0         1         2         3         4         5         6         7         8         9
 total charge-density along one line
 
 pseudopotential strength for first ion, spin component:           1
 -2.363  -4.075  -0.002   0.000  -0.001
 -4.075  -6.943  -0.005   0.001  -0.002
 -0.002  -0.005  -0.329  -0.001   0.001
  0.000   0.001  -0.001  -0.333   0.000
 -0.001  -0.002   0.001   0.000  -0.333
 total augmentation occupancy for first ion, spin component:           1
  3.558  -0.645   0.426  -0.089   0.143
 -0.645   0.133  -0.078   0.017  -0.027
  0.426  -0.078   0.053  -0.009   0.015
 -0.089   0.017  -0.009   0.010  -0.004
  0.143  -0.027   0.015  -0.004   0.012


------------------------ aborting loop because EDIFF is reached ----------------------------------------


    CHARGE:  cpu time    4.9302: real time    4.9402
    FORLOC:  cpu time    2.2817: real time    2.2860
    FORNL :  cpu time   15.5806: real time   15.6108
    STRESS:  cpu time   49.4285: real time   49.5273
    FORCOR:  cpu time   17.6993: real time   17.7322
    FORHAR:  cpu time    6.2441: real time    6.2569
    MIXING:  cpu time    1.1378: real time    1.1392
    OFIELD:  cpu time    0.0000: real time    0.0000

  FORCE on cell =-STRESS in cart. coord.  units (eV):
  Direction    XX          YY          ZZ          XY          YZ          ZX
  --------------------------------------------------------------------------------------
  Alpha Z     0.04144     0.04144     0.04144
  Ewald     348.07258   156.61317   199.23275   -22.99166   131.78749    -5.20895
  Hartree   491.01202   336.23531   354.32441    -7.80421    53.83281     5.15747
  E(xc)     -59.14609   -59.23486   -59.09415    -0.09400     0.45153    -0.07321
  Local    -997.85362  -660.11835  -718.11012    29.36085  -177.06648    -0.54274
  n-local   -15.39385   -24.00834   -25.16052     0.95412    -3.87721     1.48419
  augment     0.34106     0.82944     0.84083    -0.03208     0.06290    -0.06881
  Kinetic   232.20085   248.71394   246.92223     0.12089    -5.17052    -1.30300
  Fock        0.00000     0.00000     0.00000     0.00000     0.00000     0.00000
  -------------------------------------------------------------------------------------
  Total      -0.72561    -0.92825    -1.00314    -0.48609     0.02052    -0.55505
  in kB      -0.04306    -0.05508    -0.05953    -0.02884     0.00122    -0.03294
  external pressure =       -0.05 kB  Pullay stress =        0.00 kB


 VOLUME and BASIS-vectors are now :
 -----------------------------------------------------------------------------
  energy-cutoff  :      400.00
  volume of cell :    27000.00
      direct lattice vectors                 reciprocal lattice vectors
    30.000000000  0.000000000  0.000000000     0.033333333  0.000000000  0.000000000
     0.000000000 30.000000000  0.000000000     0.000000000  0.033333333  0.000000000
     0.000000000  0.000000000 30.000000000     0.000000000  0.000000000  0.033333333

  length of vectors
    30.000000000 30.000000000 30.000000000     0.033333333  0.033333333  0.033333333


 FORCES acting on ions
    electron-ion (+dipol)            ewald-force                    non-local-force                 convergence-correction
 -----------------------------------------------------------------------------------------------
   0.336E+02 0.568E+02 -.114E+02   -.354E+02 -.622E+02 0.125E+02   0.183E+01 0.545E+01 -.113E+01   -.465E-04 -.109E-03 0.489E-04
   0.287E+02 -.182E+02 0.577E+02   -.300E+02 0.199E+02 -.631E+02   0.135E+01 -.167E+01 0.543E+01   -.384E-04 0.580E-04 -.107E-03
   0.392E+02 -.390E+02 -.390E+02   -.415E+02 0.429E+02 0.430E+02   0.210E+01 -.380E+01 -.393E+01   0.174E-05 0.948E-04 0.105E-03
   0.102E+03 0.442E+01 0.122E+02   -.109E+03 -.475E+01 -.130E+02   0.764E+01 0.450E+00 0.951E+00   0.197E-03 0.185E-03 0.236E-03
   -.111E+03 0.132E+03 0.148E+03   0.120E+03 -.146E+03 -.164E+03   -.796E+01 0.139E+02 0.158E+02   0.207E-03 0.612E-03 0.748E-03
   -.898E+02 -.128E+03 -.158E+03   0.967E+02 0.150E+03 0.185E+03   -.727E+01 -.225E+02 -.272E+02   0.505E-03 0.474E-03 0.608E-03
 -----------------------------------------------------------------------------------------------
   0.230E+01 0.817E+01 0.100E+02   0.284E-13 -.284E-13 0.284E-13   -.231E+01 -.816E+01 -.100E+02   0.825E-03 0.131E-02 0.164E-02
 
 
 POSITION                                       TOTAL-FORCE (eV/Angst)
 -----------------------------------------------------------------------------------
     14.25221     13.99196     15.20325         0.064186      0.036267      0.046145
     14.34308     15.32769     13.96963         0.078558      0.028986      0.050384
     14.18643     15.71434     15.71466        -0.207921      0.071775      0.062535
     14.58941     15.00951     14.98715         0.023676      0.115430      0.139980
     16.38275     14.56877     14.59236         0.391067     -0.142921     -0.142809
     16.18749     15.34567     15.49793        -0.349566     -0.109538     -0.156235
 -----------------------------------------------------------------------------------
    total drift:                               -0.006716      0.005446     -0.013325


--------------------------------------------------------------------------------------------------------



  FREE ENERGIE OF THE ION-ELECTRON SYSTEM (eV)
  ---------------------------------------------------
  free  energy   TOTEN  =       -33.99773429 eV

  energy  without entropy=      -33.99773429  energy(sigma->0) =      -33.99773429
 


--------------------------------------------------------------------------------------------------------


    POTLOK:  cpu time   14.9527: real time   14.9821


--------------------------------------------------------------------------------------------------------


 NEB: the previous image is higher in energy: F
 NEB: the next image is higher in energy    : T
 NEB: only next energy greater

 NEB: Tangent
 ----------------------------------------------
     -0.14782     -0.07489     -0.07199
     -0.16958     -0.03956     -0.09932
      0.28216     -0.08522     -0.06858
     -0.00760     -0.16817     -0.20208
     -0.52585      0.19112      0.20295
      0.56927      0.17626      0.23885

 NEB: forces: par spring, perp REAL, dneb     0.052353    0.083670    0.000000
 NEB: distance to prev, next image, angle between     0.236955    0.247426  161.071147
 NEB: projections on to tangent (spring, REAL)     0.052353   -0.669511

 stress matrix after NEB project (eV)
     -0.72561     -0.48609     -0.55505
     -0.48609     -0.92825      0.02052
     -0.55505      0.02052     -1.00314
  FORCES: max atom, RMS     0.065885    0.040294
  FORCE total and by dimension    0.098699    0.061366
  Stress total and by dimension    1.866551    1.003136
 
 OPT: Flag T
 OPT: FIRE Step
 OPT: FIRE, TIMESTEP      0.10000
 OPT: FIRE, alpha         0.10000


--------------------------------------------------------------------------------------------------------


    WAVPRE:  cpu time    7.6878: real time    8.4385
 FEWALD executed in parallel
    FEWALD:  cpu time    0.0000: real time    0.0004
    ORTHCH:  cpu time    7.2009: real time    7.6624
     LOOP+:  cpu time 2814.2132: real time 2821.3268


----------------------------------------- Iteration    2(   1)  ---------------------------------------


    POTLOK:  cpu time   23.2845: real time   23.3380
    SETDIJ:  cpu time    0.0070: real time    0.0069
     EDDAV:  cpu time   85.0141: real time   85.2051
       DOS:  cpu time    0.0000: real time    0.0002
    CHARGE:  cpu time    7.1059: real time    7.1228
    MIXING:  cpu time    0.6419: real time    0.6430
    --------------------------------------------
      LOOP:  cpu time  116.0544: real time  116.3183

 eigenvalue-minimisations  :   128
 total energy-change (2. order) : 0.1870367E-03  (-0.1824902E-03)
 number of electron      16.0000002 magnetization 
 augmentation part        0.3770775 magnetization 

 Broyden mixing:
  rms(total) = 0.11878E-02    rms(broyden)= 0.11652E-02
  rms(prec ) = 0.11909E-02
  weight for this iteration     100.00

 Free energy of the ion-electron system (eV)
  ---------------------------------------------------
  alpha Z        PSCENC =         0.04144063
  Ewald energy   TEWEN  =       703.74286465
  -Hartree energ DENC   =     -1181.44239878
  -exchange      EXHF   =         0.00000000
  -V(xc)+E(xc)   XCENC  =        54.32271586
  PAW double counting   =      1165.45862034    -1168.16923793
  entropy T*S    EENTRO =         0.00000000
  eigenvalues    EBANDS =      -204.11682597
  atomic energy  EATOM  =       596.16534815
  Solvation  Ediel_sol  =         0.00000000
  ---------------------------------------------------
  free energy    TOTEN  =       -33.99747306 eV

  energy without entropy =      -33.99747306  energy(sigma->0) =      -33.99747306


--------------------------------------------------------------------------------------------------------




----------------------------------------- Iteration    2(   2)  ---------------------------------------


    POTLOK:  cpu time   22.8205: real time   22.8738
    SETDIJ:  cpu time    0.0070: real time    0.0067
     EDDAV:  cpu time   67.5477: real time   67.6980
       DOS:  cpu time    0.0000: real time    0.0002
    CHARGE:  cpu time    6.6210: real time    6.6361
    MIXING:  cpu time    0.6829: real time    0.6847
    --------------------------------------------
      LOOP:  cpu time   97.6801: real time   97.9034

 eigenvalue-minimisations  :    96
 total energy-change (2. order) :-0.5506758E-05  (-0.2629792E-05)
 number of electron      16.0000002 magnetization 
 augmentation part        0.3770768 magnetization 

 Broyden mixing:
  rms(total) = 0.72165E-03    rms(broyden)= 0.71974E-03
  rms(prec ) = 0.73350E-03
  weight for this iteration     100.00

 eigenvalues of (default mixing * dielectric matrix)
  average eigenvalue GAMMA=   1.4794
  1.4794

 Free energy of the ion-electron system (eV)
  ---------------------------------------------------
  alpha Z        PSCENC =         0.04144063
  Ewald energy   TEWEN  =       703.74286465
  -Hartree energ DENC   =     -1181.42335128
  -exchange      EXHF   =         0.00000000
  -V(xc)+E(xc)   XCENC  =        54.32174376
  PAW double counting   =      1165.20827849    -1167.91867746
  entropy T*S    EENTRO =         0.00000000
  eigenvalues    EBANDS =      -204.13512551
  atomic energy  EATOM  =       596.16534815
  Solvation  Ediel_sol  =         0.00000000
  ---------------------------------------------------
  free energy    TOTEN  =       -33.99747856 eV

  energy without entropy =      -33.99747856  energy(sigma->0) =      -33.99747856


--------------------------------------------------------------------------------------------------------




----------------------------------------- Iteration    2(   3)  ---------------------------------------


    POTLOK:  cpu time   24.4073: real time   24.4657
    SETDIJ:  cpu time    0.0060: real time    0.0063
     EDDAV:  cpu time   68.1066: real time   68.2589
       DOS:  cpu time    0.0000: real time    0.0002
    CHARGE:  cpu time    5.9491: real time    5.9615
    MIXING:  cpu time    0.7559: real time    0.7583
    --------------------------------------------
      LOOP:  cpu time   99.2259: real time   99.4538

 eigenvalue-minimisations  :    96
 total energy-change (2. order) :-0.7536656E-05  (-0.3677898E-06)
 number of electron      16.0000002 magnetization 
 augmentation part        0.3770724 magnetization 

 Broyden mixing:
  rms(total) = 0.27977E-03    rms(broyden)= 0.27951E-03
  rms(prec ) = 0.28306E-03
  weight for this iteration     100.00

 eigenvalues of (default mixing * dielectric matrix)
  average eigenvalue GAMMA=   1.5560
  0.9898  2.1221

 Free energy of the ion-electron system (eV)
  ---------------------------------------------------
  alpha Z        PSCENC =         0.04144063
  Ewald energy   TEWEN  =       703.74286465
  -Hartree energ DENC   =     -1181.41273303
  -exchange      EXHF   =         0.00000000
  -V(xc)+E(xc)   XCENC  =        54.32120487
  PAW double counting   =      1164.99324464    -1167.70344312
  entropy T*S    EENTRO =         0.00000000
  eigenvalues    EBANDS =      -204.14541289
  atomic energy  EATOM  =       596.16534815
  Solvation  Ediel_sol  =         0.00000000
  ---------------------------------------------------
  free energy    TOTEN  =       -33.99748610 eV

  energy without entropy =      -33.99748610  energy(sigma->0) =      -33.99748610


--------------------------------------------------------------------------------------------------------




----------------------------------------- Iteration    2(   4)  ---------------------------------------


    POTLOK:  cpu time   22.6566: real time   22.7092
    SETDIJ:  cpu time    0.0070: real time    0.0065
     EDDAV:  cpu time   68.5306: real time   68.6839
[...]
  Solvation  Ediel_sol  =         0.00000000
  ---------------------------------------------------
  free energy    TOTEN  =       -34.04467198 eV

  energy without entropy =      -34.04467198  energy(sigma->0) =      -34.04467198


--------------------------------------------------------------------------------------------------------




----------------------------------------- Iteration   28(   2)  ---------------------------------------


    POTLOK:  cpu time   23.6174: real time   25.6423
    SETDIJ:  cpu time    0.0070: real time    0.0069
     EDDAV:  cpu time   72.3140: real time   78.6052
       DOS:  cpu time    0.0000: real time    0.0002
    CHARGE:  cpu time    5.5712: real time    7.1531
    MIXING:  cpu time    0.5719: real time    0.5730
    --------------------------------------------
      LOOP:  cpu time  102.0835: real time  111.9944

 eigenvalue-minimisations  :    96
 total energy-change (2. order) : 0.1072030E-05  (-0.6494029E-05)
 number of electron      15.9999993 magnetization 
 augmentation part        0.3808144 magnetization 

 Broyden mixing:
  rms(total) = 0.11512E-02    rms(broyden)= 0.11479E-02
  rms(prec ) = 0.11660E-02
  weight for this iteration     100.00

 eigenvalues of (default mixing * dielectric matrix)
  average eigenvalue GAMMA=   1.3142
  1.3142

 Free energy of the ion-electron system (eV)
  ---------------------------------------------------
  alpha Z        PSCENC =         0.04144063
  Ewald energy   TEWEN  =       704.65260936
  -Hartree energ DENC   =     -1182.31383823
  -exchange      EXHF   =         0.00000000
  -V(xc)+E(xc)   XCENC  =        54.35061551
  PAW double counting   =      1170.98169549    -1173.70245710
  entropy T*S    EENTRO =         0.00000000
  eigenvalues    EBANDS =      -204.22008471
  atomic energy  EATOM  =       596.16534815
  Solvation  Ediel_sol  =         0.00000000
  ---------------------------------------------------
  free energy    TOTEN  =       -34.04467090 eV

  energy without entropy =      -34.04467090  energy(sigma->0) =      -34.04467090


--------------------------------------------------------------------------------------------------------




----------------------------------------- Iteration   28(   3)  ---------------------------------------


    POTLOK:  cpu time   21.1778: real time   22.5074
    SETDIJ:  cpu time    0.0060: real time    0.0065
     EDDAV:  cpu time   56.2235: real time   56.3844
       DOS:  cpu time    0.0000: real time    0.0002
    CHARGE:  cpu time    6.5710: real time    6.6067
    MIXING:  cpu time    0.7639: real time    0.7648
    --------------------------------------------
      LOOP:  cpu time   84.7441: real time   86.3055

 eigenvalue-minimisations  :    64
 total energy-change (2. order) :-0.1710410E-05  (-0.8556747E-06)
 number of electron      15.9999993 magnetization 
 augmentation part        0.3808218 magnetization 

 Broyden mixing:
  rms(total) = 0.53222E-03    rms(broyden)= 0.53186E-03
  rms(prec ) = 0.53859E-03
  weight for this iteration     100.00

 eigenvalues of (default mixing * dielectric matrix)
  average eigenvalue GAMMA=   1.6051
  0.9785  2.2317

 Free energy of the ion-electron system (eV)
  ---------------------------------------------------
  alpha Z        PSCENC =         0.04144063
  Ewald energy   TEWEN  =       704.65260936
  -Hartree energ DENC   =     -1182.31494467
  -exchange      EXHF   =         0.00000000
  -V(xc)+E(xc)   XCENC  =        54.35067348
  PAW double counting   =      1171.07104884    -1173.79191882
  entropy T*S    EENTRO =         0.00000000
  eigenvalues    EBANDS =      -204.21892958
  atomic energy  EATOM  =       596.16534815
  Solvation  Ediel_sol  =         0.00000000
  ---------------------------------------------------
  free energy    TOTEN  =       -34.04467261 eV

  energy without entropy =      -34.04467261  energy(sigma->0) =      -34.04467261


--------------------------------------------------------------------------------------------------------




----------------------------------------- Iteration   28(   4)  ---------------------------------------


    POTLOK:  cpu time   24.0713: real time   24.1281
    SETDIJ:  cpu time    0.0060: real time    0.0069
     EDDAV:  cpu time   41.5377: real time   41.6291
       DOS:  cpu time    0.0000: real time    0.0002
    CHARGE:  cpu time    5.7771: real time    6.6848
    MIXING:  cpu time    0.7289: real time    0.9113
    --------------------------------------------
      LOOP:  cpu time   72.1240: real time   73.3646

 eigenvalue-minimisations  :    48
 total energy-change (2. order) :-0.1678312E-05  (-0.2049379E-06)
 number of electron      15.9999993 magnetization 
 augmentation part        0.3808244 magnetization 

 Broyden mixing:
  rms(total) = 0.11681E-03    rms(broyden)= 0.11664E-03
  rms(prec ) = 0.11971E-03
  weight for this iteration     100.00

 eigenvalues of (default mixing * dielectric matrix)
  average eigenvalue GAMMA=   1.5839
  2.3770  1.0130  1.3616

 Free energy of the ion-electron system (eV)
  ---------------------------------------------------
  alpha Z        PSCENC =         0.04144063
  Ewald energy   TEWEN  =       704.65260936
  -Hartree energ DENC   =     -1182.31589947
  -exchange      EXHF   =         0.00000000
  -V(xc)+E(xc)   XCENC  =        54.35077193
  PAW double counting   =      1171.15220909    -1173.87318652
  entropy T*S    EENTRO =         0.00000000
  eigenvalues    EBANDS =      -204.21796747
  atomic energy  EATOM  =       596.16534815
  Solvation  Ediel_sol  =         0.00000000
  ---------------------------------------------------
  free energy    TOTEN  =       -34.04467429 eV

  energy without entropy =      -34.04467429  energy(sigma->0) =      -34.04467429


--------------------------------------------------------------------------------------------------------




----------------------------------------- Iteration   28(   5)  ---------------------------------------


    POTLOK:  cpu time   22.3886: real time   25.3166
    SETDIJ:  cpu time    0.0070: real time    0.0068
     EDDAV:  cpu time   46.0510: real time   51.4149
       DOS:  cpu time    0.0000: real time    0.0002
    CHARGE:  cpu time    5.9141: real time    6.7210
    MIXING:  cpu time    0.8139: real time    0.9457
    --------------------------------------------
      LOOP:  cpu time   75.1766: real time   84.4321

 eigenvalue-minimisations  :    48
 total energy-change (2. order) :-0.1122135E-06  (-0.5524458E-07)
 number of electron      15.9999993 magnetization 
 augmentation part        0.3808197 magnetization 

 Broyden mixing:
  rms(total) = 0.46078E-04    rms(broyden)= 0.46043E-04
  rms(prec ) = 0.48565E-04
  weight for this iteration     100.00

 eigenvalues of (default mixing * dielectric matrix)
  average eigenvalue GAMMA=   1.5720
  1.0138  1.0138  2.4125  1.8479

 Free energy of the ion-electron system (eV)
  ---------------------------------------------------
  alpha Z        PSCENC =         0.04144063
  Ewald energy   TEWEN  =       704.65260936
  -Hartree energ DENC   =     -1182.31503565
  -exchange      EXHF   =         0.00000000
  -V(xc)+E(xc)   XCENC  =        54.35077451
  PAW double counting   =      1171.16914246    -1173.89013587
  entropy T*S    EENTRO =         0.00000000
  eigenvalues    EBANDS =      -204.21881799
  atomic energy  EATOM  =       596.16534815
  Solvation  Ediel_sol  =         0.00000000
  ---------------------------------------------------
  free energy    TOTEN  =       -34.04467440 eV

  energy without entropy =      -34.04467440  energy(sigma->0) =      -34.04467440


--------------------------------------------------------------------------------------------------------




----------------------------------------- Iteration   28(   6)  ---------------------------------------


    POTLOK:  cpu time   20.9488: real time   24.4422
    SETDIJ:  cpu time    0.0070: real time    0.0167
     EDDAV:  cpu time   39.5750: real time   41.6656
       DOS:  cpu time    0.0000: real time    0.0002
    --------------------------------------------
      LOOP:  cpu time   60.5318: real time   66.1418

 eigenvalue-minimisations  :    48
 total energy-change (2. order) :-0.1171341E-06  (-0.1959158E-07)
 number of electron      15.9999993 magnetization 
 augmentation part        0.3808197 magnetization 

 Free energy of the ion-electron system (eV)
  ---------------------------------------------------
  alpha Z        PSCENC =         0.04144063
  Ewald energy   TEWEN  =       704.65260936
  -Hartree energ DENC   =     -1182.31429660
  -exchange      EXHF   =         0.00000000
  -V(xc)+E(xc)   XCENC  =        54.35075954
  PAW double counting   =      1171.17303069    -1173.89402278
  entropy T*S    EENTRO =         0.00000000
  eigenvalues    EBANDS =      -204.21954350
  atomic energy  EATOM  =       596.16534815
  Solvation  Ediel_sol  =         0.00000000
  ---------------------------------------------------
  free energy    TOTEN  =       -34.04467452 eV

  energy without entropy =      -34.04467452  energy(sigma->0) =      -34.04467452


--------------------------------------------------------------------------------------------------------




 average (electrostatic) potential at core
  the test charge radii are     0.5201  0.6991  0.7089
  (the norm of the test charge is              1.0000)
       1 -43.0500       2 -43.0630       3 -43.2181       4 -60.6673       5 -60.0079
       6 -74.2820
 
 
 
 E-fermi :  -6.2993     XC(G=0):  -0.0591     alpha+bet : -0.0137


 k-point     1 :       0.2500    0.2500    0.2500
  band No.  band energies     occupation 
      1     -24.1965      2.00000
      2     -17.7930      2.00000
      3     -12.6322      2.00000
      4     -11.5803      2.00000
      5     -10.9523      2.00000
      6      -9.3558      2.00000
      7      -8.2956      2.00000
      8      -7.3041      2.00000
      9      -1.7378      0.00000
     10      -1.0540      0.00000
     11      -0.6080      0.00000
     12      -0.1728      0.00000

 k-point     2 :      -0.2500    0.2500    0.2500
  band No.  band energies     occupation 
      1     -24.1965      2.00000
      2     -17.7930      2.00000
      3     -12.6322      2.00000
      4     -11.5803      2.00000
      5     -10.9523      2.00000
      6      -9.3558      2.00000
      7      -8.2956      2.00000
      8      -7.3041      2.00000
      9      -1.7378      0.00000
     10      -1.0540      0.00000
     11      -0.6080      0.00000
     12      -0.1728      0.00000

 k-point     3 :       0.2500   -0.2500    0.2500
  band No.  band energies     occupation 
      1     -24.1965      2.00000
      2     -17.7930      2.00000
      3     -12.6322      2.00000
      4     -11.5803      2.00000
      5     -10.9523      2.00000
      6      -9.3558      2.00000
      7      -8.2956      2.00000
      8      -7.3041      2.00000
      9      -1.7378      0.00000
     10      -1.0540      0.00000
     11      -0.6080      0.00000
     12      -0.1728      0.00000

 k-point     4 :      -0.2500   -0.2500    0.2500
  band No.  band energies     occupation 
      1     -24.1965      2.00000
      2     -17.7930      2.00000
      3     -12.6322      2.00000
      4     -11.5803      2.00000
      5     -10.9523      2.00000
      6      -9.3558      2.00000
      7      -8.2956      2.00000
      8      -7.3041      2.00000
      9      -1.7378      0.00000
     10      -1.0540      0.00000
     11      -0.6080      0.00000
     12      -0.1728      0.00000


--------------------------------------------------------------------------------------------------------


 soft charge-density along one line, spin component           1
         0         1         2         3         4         5         6         7         8         9
 total charge-density along one line
 
 pseudopotential strength for first ion, spin component:           1
 -2.362  -4.074  -0.002   0.000  -0.001
 -4.074  -6.941  -0.005   0.001  -0.002
 -0.002  -0.005  -0.329  -0.001   0.001
  0.000   0.001  -0.001  -0.334   0.000
 -0.001  -0.002   0.001   0.000  -0.333
 total augmentation occupancy for first ion, spin component:           1
  3.557  -0.645   0.425  -0.085   0.141
 -0.645   0.133  -0.078   0.016  -0.026
  0.425  -0.078   0.052  -0.008   0.014
 -0.085   0.016  -0.008   0.010  -0.004
  0.141  -0.026   0.014  -0.004   0.012


------------------------ aborting loop because EDIFF is reached ----------------------------------------


    CHARGE:  cpu time    6.2281: real time    6.2521
    FORLOC:  cpu time    2.4536: real time    2.4582
    FORNL :  cpu time   19.4230: real time   19.4681
    STRESS:  cpu time   60.0889: real time   60.3667
    FORCOR:  cpu time   24.2343: real time   27.0612
    FORHAR:  cpu time    7.7338: real time    8.7831
    MIXING:  cpu time    0.8479: real time    1.1599
    OFIELD:  cpu time    0.0000: real time    0.0000

  FORCE on cell =-STRESS in cart. coord.  units (eV):
  Direction    XX          YY          ZZ          XY          YZ          ZX
  --------------------------------------------------------------------------------------
  Alpha Z     0.04144     0.04144     0.04144
  Ewald     355.10602   156.08451   193.46202   -32.27249   129.61502   -15.32645
  Hartree   493.89657   336.30645   352.11048   -12.12627    52.63238     0.32715
  E(xc)     -59.15667   -59.26330   -59.13878    -0.11619     0.44527    -0.09750
  Local   -1007.38213  -659.70816  -710.47101    42.58759  -173.72070    14.03025
  n-local   -15.72876   -24.10019   -25.11010     1.21445    -3.81419     1.76355
  augment     0.39131     0.84325     0.85349    -0.03423     0.05890    -0.07100
  Kinetic   232.35199   248.80722   247.16621     0.06237    -5.21664    -1.38231
  Fock        0.00000     0.00000     0.00000     0.00000     0.00000     0.00000
  -------------------------------------------------------------------------------------
  Total      -0.48024    -0.98878    -1.08625    -0.68479     0.00004    -0.75631
  in kB      -0.02850    -0.05867    -0.06446    -0.04064     0.00000    -0.04488
  external pressure =       -0.05 kB  Pullay stress =        0.00 kB


 VOLUME and BASIS-vectors are now :
 -----------------------------------------------------------------------------
  energy-cutoff  :      400.00
  volume of cell :    27000.00
      direct lattice vectors                 reciprocal lattice vectors
    30.000000000  0.000000000  0.000000000     0.033333333  0.000000000  0.000000000
     0.000000000 30.000000000  0.000000000     0.000000000  0.033333333  0.000000000
     0.000000000  0.000000000 30.000000000     0.000000000  0.000000000  0.033333333

  length of vectors
    30.000000000 30.000000000 30.000000000     0.033333333  0.033333333  0.033333333


 FORCES acting on ions
    electron-ion (+dipol)            ewald-force                    non-local-force                 convergence-correction
 -----------------------------------------------------------------------------------------------
   0.334E+02 0.570E+02 -.110E+02   -.352E+02 -.623E+02 0.121E+02   0.180E+01 0.544E+01 -.107E+01   0.509E-04 -.517E-05 0.328E-04
   0.285E+02 -.178E+02 0.579E+02   -.297E+02 0.195E+02 -.632E+02   0.132E+01 -.162E+01 0.542E+01   0.541E-04 0.225E-04 -.276E-05
   0.397E+02 -.389E+02 -.389E+02   -.422E+02 0.428E+02 0.429E+02   0.219E+01 -.380E+01 -.393E+01   0.711E-04 0.235E-04 0.394E-04
   0.103E+03 0.430E+01 0.121E+02   -.111E+03 -.459E+01 -.129E+02   0.759E+01 0.462E+00 0.977E+00   0.298E-03 0.118E-03 0.148E-03
   -.118E+03 0.131E+03 0.145E+03   0.126E+03 -.145E+03 -.161E+03   -.797E+01 0.138E+02 0.156E+02   0.864E-04 0.277E-03 0.305E-03
   -.851E+02 -.128E+03 -.155E+03   0.917E+02 0.150E+03 0.182E+03   -.698E+01 -.226E+02 -.269E+02   0.382E-03 0.186E-03 0.286E-03
 -----------------------------------------------------------------------------------------------
   0.205E+01 0.827E+01 0.996E+01   0.000E+00 0.000E+00 0.000E+00   -.205E+01 -.825E+01 -.997E+01   0.943E-03 0.623E-03 0.808E-03
 
 
 POSITION                                       TOTAL-FORCE (eV/Angst)
 -----------------------------------------------------------------------------------
     14.25611     13.99665     15.20559         0.090581      0.081861      0.057753
     14.34718     15.33051     13.97553         0.102545      0.029649      0.097809
     14.16890     15.71849     15.71980        -0.313136      0.081315      0.066479
     14.58804     15.01970     14.99848        -0.016856      0.168461      0.195024
     16.42008     14.55798     14.58792         0.571388     -0.154542     -0.148916
     16.16110     15.33454     15.47768        -0.434522     -0.206745     -0.268149
 -----------------------------------------------------------------------------------
    total drift:                                0.000180      0.011672     -0.011932


--------------------------------------------------------------------------------------------------------



  FREE ENERGIE OF THE ION-ELECTRON SYSTEM (eV)
  ---------------------------------------------------
  free  energy   TOTEN  =       -34.04467452 eV

  energy  without entropy=      -34.04467452  energy(sigma->0) =      -34.04467452
 
 d Force = 0.1215142E-02[ 0.122E-02, 0.121E-02]  d Energy = 0.1215244E-02-0.102E-06
 d Force =-0.8847774E-01[-0.883E-01,-0.886E-01]  d Ewald  =-0.8847774E-01 0.341E-08


--------------------------------------------------------------------------------------------------------


    POTLOK:  cpu time   19.6880: real time   24.1240


--------------------------------------------------------------------------------------------------------


 NEB: the previous image is higher in energy: F
 NEB: the next image is higher in energy    : T
 NEB: only next energy greater

 NEB: Tangent
 ----------------------------------------------
     -0.09946     -0.09029     -0.06433
     -0.11296     -0.02854     -0.10794
      0.32305     -0.08701     -0.06753
      0.01318     -0.17846     -0.20805
     -0.59579      0.15930      0.16569
      0.47196      0.22500      0.28217

 NEB: forces: par spring, perp REAL, dneb     0.016170    0.021871    0.000000
 NEB: distance to prev, next image, angle between     0.193007    0.189773  166.781863
 NEB: projections on to tangent (spring, REAL)    -0.016170   -0.943668

 stress matrix after NEB project (eV)
     -0.48024     -0.68479     -0.75631
     -0.68479     -0.98878      0.00004
     -0.75631      0.00004     -1.08625
  FORCES: max atom, RMS     0.020542    0.011104
  FORCE total and by dimension    0.027199    0.018792
  Stress total and by dimension    2.114268    1.086252
 OPT: skip step - force has converged


--------------------------------------------------------------------------------------------------------


  
 reached required accuracy - stopping structural energy minimisation
     LOOP+:  cpu time  686.6746: real time  742.0462
    4ORBIT:  cpu time    0.0000: real time    0.0000

 total amount of memory used by VASP on root node  3203887. kBytes
========================================================================

   base      :      30000. kBytes
   nonlr-proj:        691. kBytes
   fftplans  :     924480. kBytes
   grid      :    1872000. kBytes
   one-center:         18. kBytes
   wavefun   :     376698. kBytes
 
  
  
 General timing and accounting informations for this job:
 ========================================================
  
                  Total CPU time used (sec):    22480.324
                            User time (sec):    22186.133
                          System time (sec):      294.191
                         Elapsed time (sec):    22605.989
  
                   Maximum memory used (kb):     4764164.
                   Average memory used (kb):           0.
  
                          Minor page faults:      3054403
                          Major page faults:            9
                 Voluntary context switches:         3991
