unknown system                          
           1
    30.000000    0.000000    0.000000
     0.000000   30.000000    0.000000
     0.000000    0.000000   30.000000
   H    C    N 
   3   2   1
Direct configuration=     1
   0.47505933  0.46639280  0.50677294
   0.47808815  0.51092308  0.46564709
   0.47287947  0.52381478  0.52382626
   0.48631973  0.50031507  0.49956973
   0.54609550  0.48562406  0.48641316
   0.53960342  0.51152813  0.51660313
Direct configuration=     2
   0.47503574  0.46638503  0.50676994
   0.47806378  0.51092338  0.46563764
   0.47287410  0.52382072  0.52383380
   0.48632804  0.50031388  0.49956868
   0.54610952  0.48562058  0.48641593
   0.53963469  0.51153411  0.51660626
Direct configuration=     3
   0.47501308  0.46638290  0.50676796
   0.47804029  0.51092414  0.46563453
   0.47285995  0.52382792  0.52384275
   0.48633232  0.50031846  0.49957368
   0.54614559  0.48561096  0.48641571
   0.53965499  0.51153302  0.51659751
Direct configuration=     4
   0.47500105  0.46639153  0.50676933
   0.47802783  0.51092631  0.46564367
   0.47283159  0.52383663  0.52385266
   0.48632958  0.50033369  0.49959066
   0.54621505  0.48558944  0.48640616
   0.53964152  0.51151949  0.51656958
Direct configuration=     5
   0.47500667  0.46641318  0.50677697
   0.47803414  0.51093159  0.46566823
   0.47278131  0.52384939  0.52386575
   0.48632103  0.50036456  0.49962584
   0.54633072  0.48555278  0.48638349
   0.53957315  0.51148524  0.51651170
Direct configuration=     6
   0.47503425  0.46644721  0.50679360
   0.47806433  0.51094207  0.46570843
   0.47270081  0.52387008  0.52388557
   0.48631030  0.50041626  0.49968516
   0.54650527  0.48549917  0.48634655
   0.53943243  0.51142162  0.51641262
Direct configuration=     7
   0.47509288  0.46649687  0.50682507
   0.47812889  0.51096210  0.46576951
   0.47256810  0.52390659  0.52391975
   0.48630147  0.50050200  0.49978459
   0.54677901  0.48541686  0.48628628
   0.53917742  0.51131165  0.51624672
Direct configuration=     8
   0.47517883  0.46655387  0.50687150
   0.47822371  0.51099327  0.46584342
   0.47238206  0.52395978  0.52397029
   0.48629535  0.50062079  0.49992062
   0.54714297  0.48531436  0.48621402
   0.53882519  0.51115363  0.51601218
Direct configuration=     9
   0.47527489  0.46660496  0.50692711
   0.47832728  0.51103610  0.46591189
   0.47213936  0.52402594  0.52403556
   0.48626947  0.50075688  0.50007415
   0.54758127  0.48519804  0.48613893
   0.53845603  0.51097345  0.51574473
Direct configuration=    10
   0.47527012  0.46660394  0.50692454
   0.47832151  0.51103469  0.46590989
   0.47214319  0.52402302  0.52403285
   0.48626531  0.50075281  0.50006907
   0.54757268  0.48520372  0.48614478
   0.53847548  0.51097721  0.51575126
Direct configuration=    11
   0.47526071  0.46660171  0.50691943
   0.47831018  0.51103191  0.46590578
   0.47215138  0.52401719  0.52402756
   0.48625786  0.50074477  0.50005902
   0.54755579  0.48521301  0.48615424
   0.53851233  0.51098680  0.51576640
Direct configuration=    12
   0.47524714  0.46659791  0.50691193
   0.47829390  0.51102793  0.46589944
   0.47216447  0.52400886  0.52402022
   0.48624870  0.50073281  0.50004409
   0.54753110  0.48522317  0.48616424
   0.53856286  0.51100476  0.51579259
Direct configuration=    13
   0.47523013  0.46659211  0.50690239
   0.47827361  0.51102307  0.46589068
   0.47218271  0.52399872  0.52401166
   0.48624071  0.50071715  0.50002461
   0.54749830  0.48523335  0.48617411
   0.53862262  0.51103109  0.51582913
Direct configuration=    14
   0.47521062  0.46658379  0.50689113
   0.47825053  0.51101770  0.46587923
   0.47220641  0.52398743  0.52400270
   0.48623719  0.50069836  0.50000145
   0.54745601  0.48524621  0.48618740
   0.53868723  0.51106205  0.51587074
Direct configuration=    15
   0.47519029  0.46657286  0.50687876
   0.47822667  0.51101235  0.46586533
   0.47223558  0.52397561  0.52399420
   0.48624076  0.50067741  0.49997590
   0.54740375  0.48526445  0.48620780
   0.53875081  0.51109293  0.51591079
Direct configuration=    16
   0.47516951  0.46655848  0.50686430
   0.47820239  0.51100706  0.46584800
   0.47227438  0.52396214  0.52398571
   0.48625377  0.50065281  0.49994689
   0.54733715  0.48528702  0.48623531
   0.53881050  0.51112818  0.51595271
Direct configuration=    17
   0.47515250  0.46654265  0.50684836
   0.47818231  0.51100240  0.46582963
   0.47232252  0.52394652  0.52397707
   0.48627346  0.50062692  0.49991730
   0.54726313  0.48530323  0.48625956
   0.53885362  0.51117407  0.51600114
Direct configuration=    18
   0.47515343  0.46654289  0.50684836
   0.47818333  0.51100255  0.46583001
   0.47232294  0.52394633  0.52397710
   0.48627342  0.50062714  0.49991758
   0.54726314  0.48530297  0.48625987
   0.53885128  0.51117391  0.51600013
Direct configuration=    19
   0.47515531  0.46654340  0.50684840
   0.47818540  0.51100286  0.46583080
   0.47232356  0.52394602  0.52397722
   0.48627334  0.50062769  0.49991825
   0.54726352  0.48530232  0.48626037
   0.53884641  0.51117351  0.51599803
Direct configuration=    20
   0.47515814  0.46654419  0.50684851
   0.47818852  0.51100337  0.46583204
   0.47232410  0.52394569  0.52397750
   0.48627320  0.50062864  0.49991941
   0.54726473  0.48530113  0.48626087
   0.53883886  0.51117278  0.51599473
Direct configuration=    21
   0.47516187  0.46654528  0.50684874
   0.47819265  0.51100408  0.46583373
   0.47232422  0.52394542  0.52397802
   0.48627299  0.50063012  0.49992115
   0.54726722  0.48529926  0.48626123
   0.53882857  0.51117164  0.51599019
Direct configuration=    22
   0.47516645  0.46654663  0.50684913
   0.47819773  0.51100504  0.46583584
   0.47232361  0.52394533  0.52397887
   0.48627271  0.50063220  0.49992357
   0.54727146  0.48529659  0.48626133
   0.53881556  0.51117001  0.51598433
Direct configuration=    23
   0.47517174  0.46654815  0.50684964
   0.47820362  0.51100625  0.46583828
   0.47232215  0.52394545  0.52398009
   0.48627234  0.50063488  0.49992663
   0.54727744  0.48529316  0.48626122
   0.53880022  0.51116793  0.51597722
Direct configuration=    24
   0.47517822  0.46654988  0.50685034
   0.47821087  0.51100788  0.46584120
   0.47231939  0.52394584  0.52398191
   0.48627187  0.50063856  0.49993068
   0.54728612  0.48528855  0.48626106
   0.53878103  0.51116510  0.51596790
Direct configuration=    25
   0.47518588  0.46655171  0.50685119
   0.47821946  0.51101007  0.46584450
   0.47231477  0.52394663  0.52398456
   0.48627120  0.50064340  0.49993580
   0.54729818  0.48528264  0.48626114
   0.53875800  0.51116137  0.51595591
Direct configuration=    26
   0.47519455  0.46655347  0.50685210
   0.47822921  0.51101300  0.46584793
   0.47230757  0.52394793  0.52398826
   0.48627002  0.50064945  0.49994207
   0.54731447  0.48527527  0.48626194
   0.53873165  0.51115670  0.51594080
Direct configuration=    27
   0.47520372  0.46655490  0.50685286
   0.47823950  0.51101686  0.46585111
   0.47229683  0.52394975  0.52399323
   0.48626795  0.50065671  0.49994939
   0.54733596  0.48526616  0.48626392
   0.53870350  0.51115146  0.51592260
Direct configuration=    28
   0.47520372  0.46655490  0.50685286
   0.47823950  0.51101686  0.46585111
   0.47229683  0.52394975  0.52399323
   0.48626795  0.50065671  0.49994939
   0.54733596  0.48526616  0.48626392
   0.53870350  0.51115146  0.51592260
