  22  22   0   0
  0.1227273E+04  0.3000000E-08  0.3000000E-08  0.3000000E-08  0.0000000E+00
  1.000000000000000E-004
  CAR 
 unknown system                          
      2.19913760    -28.12781021  301     -4.57309098      1.00000000
    -28.128  0.0000E+00  0.0000E+00
    -28.027  0.0000E+00  0.0000E+00
    -27.926  0.0000E+00  0.0000E+00
    -27.825  0.0000E+00  0.0000E+00
    -27.723  0.0000E+00  0.0000E+00
    -27.622  0.0000E+00  0.0000E+00
    -27.521  0.0000E+00  0.0000E+00
    -27.420  0.0000E+00  0.0000E+00
    -27.319  0.0000E+00  0.0000E+00
    -27.218  0.4173E-15  0.4219E-16
    -27.117  0.8767E-13  0.8905E-14
    -27.016  0.1113E-10  0.1134E-11
    -26.915  0.8563E-09  0.8769E-10
    -26.814  0.3993E-07  0.4124E-08
    -26.713  0.1131E-05  0.1184E-06
    -26.611  0.1948E-04  0.2088E-05
    -26.510  0.2045E-03  0.2276E-04
    -26.409  0.1310E-02  0.1552E-03
    -26.308  0.5130E-02  0.6738E-03
    -26.207  0.1230E-01  0.1917E-02
    -26.106  0.1807E-01  0.3743E-02
    -26.005  0.1639E-01  0.5400E-02
    -25.904  0.9975E-02  0.6408E-02
    -25.803  0.7323E-02  0.7149E-02
    -25.702  0.1173E-01  0.8334E-02
    -25.601  0.1765E-01  0.1012E-01
    -25.499  0.1705E-01  0.1184E-01
    -25.398  0.1013E-01  0.1287E-01
    -25.297  0.3686E-02  0.1324E-01
    -25.196  0.8208E-03  0.1332E-01
    -25.095  0.1117E-03  0.1333E-01
    -24.994  0.9271E-05  0.1333E-01
    -24.893  0.4687E-06  0.1333E-01
    -24.792  0.1441E-07  0.1333E-01
    -24.691  0.2688E-09  0.1333E-01
    -24.590  0.3040E-11  0.1333E-01
    -24.489  0.2089E-13  0.1333E-01
    -24.387  0.1864E-13  0.1333E-01
    -24.286  0.2740E-11  0.1333E-01
    -24.185  0.2449E-09  0.1333E-01
    -24.084  0.1327E-07  0.1333E-01
    -23.983  0.4365E-06  0.1333E-01
    -23.882  0.8729E-05  0.1333E-01
    -23.781  0.1063E-03  0.1335E-01
    -23.680  0.7898E-03  0.1342E-01
    -23.579  0.3585E-02  0.1379E-01
    -23.478  0.9956E-02  0.1479E-01
    -23.377  0.1694E-01  0.1651E-01
    -23.275  0.1766E-01  0.1829E-01
    -23.174  0.1140E-01  0.1944E-01
    -23.073  0.5281E-02  0.1998E-01
    -22.972  0.4896E-02  0.2047E-01
    -22.871  0.1054E-01  0.2154E-01
    -22.770  0.1720E-01  0.2328E-01
    -22.669  0.1745E-01  0.2504E-01
    -22.568  0.1085E-01  0.2614E-01
    -22.467  0.4132E-02  0.2655E-01
    -22.366  0.9633E-03  0.2665E-01
    -22.265  0.1372E-03  0.2667E-01
    -22.164  0.1193E-04  0.2667E-01
    -22.062  0.6313E-06  0.2667E-01
    -21.961  0.2032E-07  0.2667E-01
    -21.860  0.3972E-09  0.2667E-01
    -21.759  0.4706E-11  0.2667E-01
    -21.658  0.3375E-13  0.2667E-01
    -21.557  0.1464E-15  0.2667E-01
    -21.456  0.0000E+00  0.2667E-01
    -21.355  0.0000E+00  0.2667E-01
    -21.254  0.0000E+00  0.2667E-01
    -21.153  0.0000E+00  0.2667E-01
    -21.052  0.0000E+00  0.2667E-01
    -20.950  0.0000E+00  0.2667E-01
    -20.849  0.0000E+00  0.2667E-01
    -20.748  0.0000E+00  0.2667E-01
    -20.647  0.1904E-15  0.2667E-01
    -20.546  0.4306E-13  0.2667E-01
    -20.445  0.5862E-11  0.2667E-01
    -20.344  0.4833E-09  0.2667E-01
    -20.243  0.2415E-07  0.2667E-01
    -20.142  0.7329E-06  0.2667E-01
    -20.041  0.1352E-04  0.2667E-01
    -19.940  0.1520E-03  0.2668E-01
    -19.838  0.1043E-02  0.2679E-01
    -19.737  0.4372E-02  0.2723E-01
    -19.636  0.1122E-01  0.2836E-01
    -19.535  0.1762E-01  0.3015E-01
    -19.434  0.1697E-01  0.3186E-01
    -19.333  0.1002E-01  0.3287E-01
    -19.232  0.3620E-02  0.3324E-01
    -19.131  0.8006E-03  0.3332E-01
    -19.030  0.1082E-03  0.3333E-01
    -18.929  0.8927E-05  0.3333E-01
    -18.828  0.8103E-06  0.3333E-01
    -18.726  0.7474E-05  0.3333E-01
    -18.625  0.9345E-04  0.3334E-01
    -18.524  0.7140E-03  0.3342E-01
    -18.423  0.3333E-02  0.3375E-01
    -18.322  0.9519E-02  0.3471E-01
    -18.221  0.1665E-01  0.3640E-01
    -18.120  0.1785E-01  0.3820E-01
    -18.019  0.1176E-01  0.3939E-01
    -17.918  0.5089E-02  0.3991E-01
    -17.817  0.3229E-02  0.4023E-01
    -17.716  0.7174E-02  0.4096E-01
    -17.614  0.1452E-01  0.4242E-01
    -17.513  0.1841E-01  0.4429E-01
    -17.412  0.1433E-01  0.4573E-01
    -17.311  0.6830E-02  0.4643E-01
    -17.210  0.1993E-02  0.4663E-01
    -17.109  0.3558E-03  0.4666E-01
    -17.008  0.3877E-04  0.4667E-01
    -16.907  0.2575E-05  0.4667E-01
    -16.806  0.1041E-06  0.4667E-01
    -16.705  0.2558E-08  0.4667E-01
    -16.604  0.1045E-09  0.4667E-01
    -16.502  0.4188E-08  0.4667E-01
    -16.401  0.1601E-06  0.4667E-01
    -16.300  0.3721E-05  0.4667E-01
    -16.199  0.5263E-04  0.4667E-01
    -16.098  0.4539E-03  0.4672E-01
    -15.997  0.2391E-02  0.4696E-01
    -15.896  0.7701E-02  0.4774E-01
    -15.795  0.1519E-01  0.4927E-01
    -15.694  0.1836E-01  0.5113E-01
    -15.593  0.1360E-01  0.5250E-01
    -15.492  0.6170E-02  0.5313E-01
    -15.390  0.1731E-02  0.5330E-01
    -15.289  0.4731E-03  0.5335E-01
    -15.188  0.1228E-02  0.5347E-01
    -15.087  0.4822E-02  0.5396E-01
    -14.986  0.1187E-01  0.5516E-01
    -14.885  0.1790E-01  0.5697E-01
    -14.784  0.1655E-01  0.5864E-01
    -14.683  0.9374E-02  0.5959E-01
    -14.582  0.3272E-02  0.5992E-01
    -14.481  0.9033E-03  0.6001E-01
    -14.380  0.1442E-02  0.6016E-01
    -14.279  0.5252E-02  0.6069E-01
    -14.177  0.1245E-01  0.6195E-01
    -14.076  0.1810E-01  0.6378E-01
    -13.975  0.1613E-01  0.6541E-01
    -13.874  0.8807E-02  0.6630E-01
    -13.773  0.2945E-02  0.6660E-01
    -13.672  0.6081E-03  0.6666E-01
    -13.571  0.1503E-03  0.6667E-01
    -13.470  0.6069E-03  0.6674E-01
    -13.369  0.2941E-02  0.6703E-01
    -13.268  0.8799E-02  0.6792E-01
    -13.167  0.1612E-01  0.6955E-01
    -13.065  0.1810E-01  0.7138E-01
    -12.964  0.1246E-01  0.7264E-01
    -12.863  0.5252E-02  0.7317E-01
    -12.762  0.1358E-02  0.7331E-01
    -12.661  0.2541E-03  0.7334E-01
    -12.560  0.3894E-03  0.7337E-01
    -12.459  0.2071E-02  0.7358E-01
    -12.358  0.7223E-02  0.7431E-01
    -12.257  0.1613E-01  0.7595E-01
    -12.156  0.2453E-01  0.7842E-01
    -12.055  0.2793E-01  0.8125E-01
    -11.953  0.2524E-01  0.8380E-01
    -11.852  0.1728E-01  0.8555E-01
    -11.751  0.8256E-02  0.8638E-01
    -11.650  0.3406E-02  0.8672E-01
    -11.549  0.4585E-02  0.8719E-01
    -11.448  0.1122E-01  0.8832E-01
    -11.347  0.1963E-01  0.9031E-01
    -11.246  0.2460E-01  0.9279E-01
    -11.145  0.2546E-01  0.9537E-01
    -11.044  0.2322E-01  0.9772E-01
    -10.943  0.1888E-01  0.9962E-01
    -10.841  0.1731E-01  0.1014E+00
    -10.740  0.1923E-01  0.1033E+00
    -10.639  0.1768E-01  0.1051E+00
    -10.538  0.1127E-01  0.1062E+00
    -10.437  0.7616E-02  0.1070E+00
    -10.336  0.1319E-01  0.1083E+00
    -10.235  0.2652E-01  0.1110E+00
    -10.134  0.3775E-01  0.1148E+00
    -10.033  0.3888E-01  0.1188E+00
     -9.932  0.3303E-01  0.1221E+00
     -9.831  0.2575E-01  0.1247E+00
     -9.729  0.2030E-01  0.1268E+00
     -9.628  0.2121E-01  0.1289E+00
     -9.527  0.2756E-01  0.1317E+00
     -9.426  0.3230E-01  0.1350E+00
     -9.325  0.3273E-01  0.1383E+00
     -9.224  0.3360E-01  0.1417E+00
     -9.123  0.3801E-01  0.1455E+00
     -9.022  0.4053E-01  0.1496E+00
     -8.921  0.3714E-01  0.1534E+00
     -8.820  0.3188E-01  0.1566E+00
     -8.719  0.2811E-01  0.1594E+00
     -8.617  0.2576E-01  0.1620E+00
     -8.516  0.2221E-01  0.1643E+00
     -8.415  0.1482E-01  0.1658E+00
     -8.314  0.6618E-02  0.1664E+00
     -8.213  0.1863E-02  0.1666E+00
     -8.112  0.3233E-03  0.1667E+00
     -8.011  0.3435E-04  0.1667E+00
     -7.910  0.2227E-05  0.1667E+00
     -7.809  0.8784E-07  0.1667E+00
     -7.708  0.2106E-08  0.1667E+00
     -7.607  0.1248E-09  0.1667E+00
     -7.505  0.5705E-08  0.1667E+00
     -7.404  0.2096E-06  0.1667E+00
     -7.303  0.4682E-05  0.1667E+00
     -7.202  0.6365E-04  0.1667E+00
     -7.101  0.5277E-03  0.1667E+00
     -7.000  0.2672E-02  0.1670E+00
     -6.899  0.8277E-02  0.1678E+00
     -6.798  0.1570E-01  0.1694E+00
     -6.697  0.1825E-01  0.1713E+00
     -6.596  0.1304E-01  0.1726E+00
     -6.495  0.6049E-02  0.1732E+00
     -6.393  0.3625E-02  0.1736E+00
     -6.292  0.7572E-02  0.1743E+00
     -6.191  0.1632E-01  0.1760E+00
     -6.090  0.2471E-01  0.1785E+00
     -5.989  0.2806E-01  0.1813E+00
     -5.888  0.2533E-01  0.1839E+00
     -5.787  0.1808E-01  0.1857E+00
     -5.686  0.1228E-01  0.1869E+00
     -5.585  0.1357E-01  0.1883E+00
     -5.484  0.1806E-01  0.1901E+00
     -5.383  0.1703E-01  0.1919E+00
     -5.282  0.1003E-01  0.1929E+00
     -5.180  0.3625E-02  0.1932E+00
     -5.079  0.8020E-03  0.1933E+00
     -4.978  0.1084E-03  0.1933E+00
     -4.877  0.8942E-05  0.1933E+00
     -4.776  0.4491E-06  0.1933E+00
     -4.675  0.1371E-07  0.1933E+00
     -4.574  0.2542E-09  0.1933E+00
     -4.473  0.2856E-11  0.1933E+00
     -4.372  0.1943E-13  0.1933E+00
     -4.271  0.8054E-16  0.1933E+00
     -4.170  0.0000E+00  0.1933E+00
     -4.068  0.0000E+00  0.1933E+00
     -3.967  0.0000E+00  0.1933E+00
     -3.866  0.0000E+00  0.1933E+00
     -3.765  0.0000E+00  0.1933E+00
     -3.664  0.0000E+00  0.1933E+00
     -3.563  0.0000E+00  0.1933E+00
     -3.462  0.0000E+00  0.1933E+00
     -3.361  0.0000E+00  0.1933E+00
     -3.260  0.0000E+00  0.1933E+00
     -3.159  0.0000E+00  0.1933E+00
     -3.058  0.0000E+00  0.1933E+00
     -2.956  0.0000E+00  0.1933E+00
     -2.855  0.0000E+00  0.1933E+00
     -2.754  0.0000E+00  0.1933E+00
     -2.653  0.0000E+00  0.1933E+00
     -2.552  0.0000E+00  0.1933E+00
     -2.451  0.0000E+00  0.1933E+00
     -2.350  0.0000E+00  0.1933E+00
     -2.249  0.3661E-17  0.1933E+00
     -2.148  0.1258E-14  0.1933E+00
     -2.047  0.2388E-12  0.1933E+00
     -1.946  0.2745E-10  0.1933E+00
     -1.844  0.1911E-08  0.1933E+00
     -1.743  0.8072E-07  0.1933E+00
     -1.642  0.2072E-05  0.1933E+00
     -1.541  0.3237E-04  0.1933E+00
     -1.440  0.3087E-03  0.1934E+00
     -1.339  0.1807E-02  0.1936E+00
     -1.238  0.6558E-02  0.1942E+00
     -1.137  0.1514E-01  0.1957E+00
     -1.036  0.2362E-01  0.1981E+00
     -0.935  0.2750E-01  0.2009E+00
     -0.834  0.2614E-01  0.2036E+00
     -0.732  0.2123E-01  0.2057E+00
     -0.631  0.1845E-01  0.2076E+00
     -0.530  0.2310E-01  0.2099E+00
     -0.429  0.3232E-01  0.2132E+00
     -0.328  0.4077E-01  0.2173E+00
     -0.227  0.4771E-01  0.2221E+00
     -0.126  0.5695E-01  0.2279E+00
     -0.025  0.7573E-01  0.2355E+00
      0.076  0.1025E+00  0.2459E+00
      0.177  0.1140E+00  0.2574E+00
      0.278  0.9013E-01  0.2665E+00
      0.380  0.4738E-01  0.2713E+00
      0.481  0.1607E-01  0.2729E+00
      0.582  0.3461E-02  0.2733E+00
      0.683  0.4691E-03  0.2733E+00
      0.784  0.3971E-04  0.2733E+00
      0.885  0.2086E-05  0.2733E+00
      0.986  0.6769E-07  0.2733E+00
      1.087  0.1350E-08  0.2733E+00
      1.188  0.1650E-10  0.2733E+00
      1.289  0.1230E-12  0.2733E+00
      1.390  0.5619E-15  0.2733E+00
      1.492  0.0000E+00  0.2733E+00
      1.593  0.0000E+00  0.2733E+00
      1.694  0.0000E+00  0.2733E+00
      1.795  0.0000E+00  0.2733E+00
      1.896  0.0000E+00  0.2733E+00
      1.997  0.0000E+00  0.2733E+00
      2.098  0.0000E+00  0.2733E+00
      2.199  0.0000E+00  0.2733E+00
