   22   22  300    1
  0.1227273E+04  0.3000000E-08  0.3000000E-08  0.3000000E-08  0.0000000E+00
  1.000000000000000E-004
  CAR 
 unknown system                          
     58      4     41
 
  0.2500000E+00  0.2500000E+00  0.2500000E+00  0.2500000E+00
    1      -26.127810   1.000000
    2      -25.606910   1.000000
    3      -23.368024   1.000000
    4      -22.767016   1.000000
    5      -19.542959   1.000000
    6      -18.206690   1.000000
    7      -17.565187   1.000000
    8      -15.755746   1.000000
    9      -14.901281   1.000000
   10      -14.100128   1.000000
   11      -13.142603   1.000000
   12      -12.206497   1.000000
   13      -11.991710   1.000000
   14      -11.348761   1.000000
   15      -11.100600   1.000000
   16      -10.741386   1.000000
   17      -10.210610   1.000000
   18      -10.122120   1.000000
   19       -9.905154   1.000000
   20       -9.561658   1.000000
   21       -9.385947   1.000000
   22       -9.142229   1.000000
   23       -9.043453   1.000000
   24       -8.824970   1.000000
   25       -8.573149   1.000000
   26       -6.766807   1.000000
   27       -6.142371   1.000000
   28       -5.929142   1.000000
   29       -5.491373   1.000000
   30       -1.077620   0.000000
   31       -0.857127   0.000000
   32       -0.498977   0.000000
   33       -0.324808   0.000000
   34       -0.199312   0.000000
   35       -0.059389   0.000000
   36        0.042697   0.000000
   37        0.123978   0.000000
   38        0.131033   0.000000
   39        0.138271   0.000000
   40        0.181170   0.000000
   41        0.197714   0.000000
 
 -0.2500000E+00  0.2500000E+00  0.2500000E+00  0.2500000E+00
    1      -26.127810   1.000000
    2      -25.606910   1.000000
    3      -23.368023   1.000000
    4      -22.767015   1.000000
    5      -19.542959   1.000000
    6      -18.206691   1.000000
    7      -17.565188   1.000000
    8      -15.755744   1.000000
    9      -14.901282   1.000000
   10      -14.100136   1.000000
   11      -13.142589   1.000000
   12      -12.206493   1.000000
   13      -11.991706   1.000000
   14      -11.348759   1.000000
   15      -11.100592   1.000000
   16      -10.741374   1.000000
   17      -10.210618   1.000000
   18      -10.122121   1.000000
   19       -9.905156   1.000000
   20       -9.561670   1.000000
   21       -9.385961   1.000000
   22       -9.142225   1.000000
   23       -9.043452   1.000000
   24       -8.824971   1.000000
   25       -8.573139   1.000000
   26       -6.766818   1.000000
   27       -6.142379   1.000000
   28       -5.929140   1.000000
   29       -5.491358   1.000000
   30       -1.077598   0.000000
   31       -0.857131   0.000000
   32       -0.498968   0.000000
   33       -0.324801   0.000000
   34       -0.199321   0.000000
   35       -0.060254   0.000000
   36        0.049850   0.000000
   37        0.114143   0.000000
   38        0.124604   0.000000
   39        0.142764   0.000000
   40        0.181195   0.000000
   41        0.194023   0.000000
 
  0.2500000E+00 -0.2500000E+00  0.2500000E+00  0.2500000E+00
    1      -26.127810   1.000000
    2      -25.606911   1.000000
    3      -23.368023   1.000000
    4      -22.767017   1.000000
    5      -19.542959   1.000000
    6      -18.206690   1.000000
    7      -17.565187   1.000000
    8      -15.755745   1.000000
    9      -14.901285   1.000000
   10      -14.100131   1.000000
   11      -13.142591   1.000000
   12      -12.206493   1.000000
   13      -11.991708   1.000000
   14      -11.348762   1.000000
   15      -11.100590   1.000000
   16      -10.741377   1.000000
   17      -10.210617   1.000000
   18      -10.122117   1.000000
   19       -9.905158   1.000000
   20       -9.561655   1.000000
   21       -9.385953   1.000000
   22       -9.142220   1.000000
   23       -9.043456   1.000000
   24       -8.824972   1.000000
   25       -8.573152   1.000000
   26       -6.766822   1.000000
   27       -6.142369   1.000000
   28       -5.929146   1.000000
   29       -5.491368   1.000000
   30       -1.077608   0.000000
   31       -0.857125   0.000000
   32       -0.498963   0.000000
   33       -0.324799   0.000000
   34       -0.199425   0.000000
   35       -0.059202   0.000000
   36        0.047340   0.000000
   37        0.109226   0.000000
   38        0.132821   0.000000
   39        0.140484   0.000000
   40        0.177994   0.000000
   41        0.199138   0.000000
 
 -0.2500000E+00 -0.2500000E+00  0.2500000E+00  0.2500000E+00
    1      -26.127809   1.000000
    2      -25.606914   1.000000
    3      -23.368021   1.000000
    4      -22.767014   1.000000
    5      -19.542959   1.000000
    6      -18.206692   1.000000
    7      -17.565190   1.000000
    8      -15.755745   1.000000
    9      -14.901283   1.000000
   10      -14.100132   1.000000
   11      -13.142596   1.000000
   12      -12.206499   1.000000
   13      -11.991710   1.000000
   14      -11.348754   1.000000
   15      -11.100590   1.000000
   16      -10.741376   1.000000
   17      -10.210616   1.000000
   18      -10.122111   1.000000
   19       -9.905153   1.000000
   20       -9.561659   1.000000
   21       -9.385948   1.000000
   22       -9.142226   1.000000
   23       -9.043467   1.000000
   24       -8.824981   1.000000
   25       -8.573149   1.000000
   26       -6.766823   1.000000
   27       -6.142370   1.000000
   28       -5.929133   1.000000
   29       -5.491370   1.000000
   30       -1.077618   0.000000
   31       -0.857126   0.000000
   32       -0.498964   0.000000
   33       -0.324807   0.000000
   34       -0.199346   0.000000
   35       -0.059758   0.000000
   36        0.048369   0.000000
   37        0.115197   0.000000
   38        0.130499   0.000000
   39        0.134025   0.000000
   40        0.184719   0.000000
   41        0.198028   0.000000
