 vasp.5.4.1 24Jun15 (build Jan 13 2020 12:58:22) complex                        
  
 executed on           IFC91_ompi date 2020.02.03  09:59:13
 running on   15 total cores
 each image running on    1 cores
 distrk:  each k-point on    1 cores,    1 groups
 distr:  one band on NCORES_PER_BAND=   1 cores,    1 groups


--------------------------------------------------------------------------------------------------------


 INCAR:
 POTCAR:    PAW_PBE H 15Jun2001                   
 POTCAR:    PAW_PBE C 08Apr2002                   
 POTCAR:    PAW_PBE N 08Apr2002                   
 POTCAR:    PAW_PBE O 08Apr2002                   
 POTCAR:    PAW_PBE H 15Jun2001                   
   VRHFIN =H: ultrasoft test                                                    
   LEXCH  = PE                                                                  
   EATOM  =    12.4884 eV,    0.9179 Ry                                         
                                                                                
   TITEL  = PAW_PBE H 15Jun2001                                                 
   LULTRA =        F    use ultrasoft PP ?                                      
   IUNSCR =        0    unscreen: 0-lin 1-nonlin 2-no                           
   RPACOR =    0.000    partial core radius                                     
   POMASS =    1.000; ZVAL   =    1.000    mass and valenz                      
   RCORE  =    1.100    outmost cutoff radius                                   
   RWIGS  =    0.700; RWIGS  =    0.370    wigner-seitz radius (au A)           
   ENMAX  =  250.000; ENMIN  =  200.000 eV                                      
   RCLOC  =    0.701    cutoff for local pot                                    
   LCOR   =        T    correct aug charges                                     
   LPAW   =        T    paw PP                                                  
   EAUG   =  400.000                                                            
   RMAX   =    1.123    core radius for proj-oper                               
   RAUG   =    1.200    factor for augmentation sphere                          
   RDEP   =    1.112    radius for radial grids                                 
   RDEPT  =    0.926    core radius for aug-charge                              
                                                                                
   Atomic configuration                                                         
    2 entries                                                                   
     n  l   j            E        occ.                                          
     1  0  0.50        -6.4927   1.0000                                         
     2  1  0.50        -3.4015   0.0000                                         
   Description                                                                  
     l       E           TYP  RCUT    TYP  RCUT                                 
     0     -6.4927494     23  1.100                                             
     0      6.8029130     23  1.100                                             
     1     -4.0817478     23  1.100                                             
  local pseudopotential read in
  atomic valenz-charges read in
  non local Contribution for L=           0  read in
    real space projection operators read in
  non local Contribution for L=           0  read in
    real space projection operators read in
  non local Contribution for L=           1  read in
    real space projection operators read in
    PAW grid and wavefunctions read in
 
   number of l-projection  operators is LMAX  =           3
   number of lm-projection operators is LMMAX =           5
 
 POTCAR:    PAW_PBE C 08Apr2002                   
   VRHFIN =C: s2p2                                                              
   LEXCH  = PE                                                                  
   EATOM  =   147.1560 eV,   10.8157 Ry                                         
                                                                                
   TITEL  = PAW_PBE C 08Apr2002                                                 
   LULTRA =        F    use ultrasoft PP ?                                      
   IUNSCR =        1    unscreen: 0-lin 1-nonlin 2-no                           
   RPACOR =    1.200    partial core radius                                     
   POMASS =   12.011; ZVAL   =    4.000    mass and valenz                      
   RCORE  =    1.500    outmost cutoff radius                                   
   RWIGS  =    1.630; RWIGS  =    0.863    wigner-seitz radius (au A)           
   ENMAX  =  400.000; ENMIN  =  300.000 eV                                      
   ICORE  =        2    local potential                                         
   LCOR   =        T    correct aug charges                                     
   LPAW   =        T    paw PP                                                  
   EAUG   =  644.873                                                            
   DEXC   =    0.000                                                            
   RMAX   =    1.529    core radius for proj-oper                               
   RAUG   =    1.300    factor for augmentation sphere                          
   RDEP   =    1.501    radius for radial grids                                 
   RDEPT  =    1.300    core radius for aug-charge                              
                                                                                
   Atomic configuration                                                         
    4 entries                                                                   
     n  l   j            E        occ.                                          
     1  0  0.50      -273.3789   2.0000                                         
     2  0  0.50       -13.7508   2.0000                                         
     2  1  0.50        -5.2854   2.0000                                         
     3  2  1.50        -5.4423   0.0000                                         
   Description                                                                  
     l       E           TYP  RCUT    TYP  RCUT                                 
     0    -13.7508458     23  1.200                                             
     0     -8.2022199     23  1.200                                             
     1     -5.2854383     23  1.500                                             
     1     34.0145650     23  1.500                                             
     2     -5.4423304      7  1.500                                             
  local pseudopotential read in
  partial core-charges read in
  partial kinetic energy density read in
  atomic valenz-charges read in
  non local Contribution for L=           0  read in
    real space projection operators read in
  non local Contribution for L=           0  read in
    real space projection operators read in
  non local Contribution for L=           1  read in
    real space projection operators read in
  non local Contribution for L=           1  read in
    real space projection operators read in
    PAW grid and wavefunctions read in
 
   number of l-projection  operators is LMAX  =           4
   number of lm-projection operators is LMMAX =           8
 
 POTCAR:    PAW_PBE N 08Apr2002                   
   VRHFIN =N: s2p3                                                              
   LEXCH  = PE                                                                  
   EATOM  =   264.5486 eV,   19.4438 Ry                                         
                                                                                
   TITEL  = PAW_PBE N 08Apr2002                                                 
   LULTRA =        F    use ultrasoft PP ?                                      
   IUNSCR =        1    unscreen: 0-lin 1-nonlin 2-no                           
   RPACOR =    1.200    partial core radius                                     
   POMASS =   14.001; ZVAL   =    5.000    mass and valenz                      
   RCORE  =    1.500    outmost cutoff radius                                   
   RWIGS  =    1.400; RWIGS  =    0.741    wigner-seitz radius (au A)           
   ENMAX  =  400.000; ENMIN  =  300.000 eV                                      
   ICORE  =        2    local potential                                         
   LCOR   =        T    correct aug charges                                     
   LPAW   =        T    paw PP                                                  
   EAUG   =  627.112                                                            
   DEXC   =    0.000                                                            
   RMAX   =    1.529    core radius for proj-oper                               
   RAUG   =    1.300    factor for augmentation sphere                          
   RDEP   =    1.514    radius for radial grids                                 
   RDEPT  =    1.338    core radius for aug-charge                              
                                                                                
   Atomic configuration                                                         
    4 entries                                                                   
     n  l   j            E        occ.                                          
     1  0  0.50      -384.7179   2.0000                                         
     2  0  0.50       -18.5828   2.0000                                         
     2  1  0.50        -7.0898   3.0000                                         
     3  2  1.50        -6.8029   0.0000                                         
   Description                                                                  
     l       E           TYP  RCUT    TYP  RCUT                                 
     0    -18.5828119     23  1.200                                             
     0    -13.5018863     23  1.200                                             
     1     -7.0897853     23  1.500                                             
     1      9.5240782     23  1.500                                             
     2     -6.8029130      7  1.500                                             
  local pseudopotential read in
  partial core-charges read in
  partial kinetic energy density read in
  atomic valenz-charges read in
  non local Contribution for L=           0  read in
    real space projection operators read in
  non local Contribution for L=           0  read in
    real space projection operators read in
  non local Contribution for L=           1  read in
    real space projection operators read in
  non local Contribution for L=           1  read in
    real space projection operators read in
    PAW grid and wavefunctions read in
 
   number of l-projection  operators is LMAX  =           4
   number of lm-projection operators is LMMAX =           8
 
 POTCAR:    PAW_PBE O 08Apr2002                   
   VRHFIN =O: s2p4                                                              
   LEXCH  = PE                                                                  
   EATOM  =   432.3788 eV,   31.7789 Ry                                         
                                                                                
   TITEL  = PAW_PBE O 08Apr2002                                                 
   LULTRA =        F    use ultrasoft PP ?                                      
   IUNSCR =        1    unscreen: 0-lin 1-nonlin 2-no                           
   RPACOR =    1.200    partial core radius                                     
   POMASS =   16.000; ZVAL   =    6.000    mass and valenz                      
   RCORE  =    1.520    outmost cutoff radius                                   
   RWIGS  =    1.550; RWIGS  =    0.820    wigner-seitz radius (au A)           
   ENMAX  =  400.000; ENMIN  =  300.000 eV                                      
   ICORE  =        2    local potential                                         
   LCOR   =        T    correct aug charges                                     
   LPAW   =        T    paw PP                                                  
   EAUG   =  605.392                                                            
   DEXC   =    0.000                                                            
   RMAX   =    1.553    core radius for proj-oper                               
   RAUG   =    1.300    factor for augmentation sphere                          
   RDEP   =    1.550    radius for radial grids                                 
   RDEPT  =    1.329    core radius for aug-charge                              
                                                                                
   Atomic configuration                                                         
    4 entries                                                                   
     n  l   j            E        occ.                                          
     1  0  0.50      -514.6923   2.0000                                         
     2  0  0.50       -23.9615   2.0000                                         
     2  1  0.50        -9.0305   4.0000                                         
     3  2  1.50        -9.5241   0.0000                                         
   Description                                                                  
     l       E           TYP  RCUT    TYP  RCUT                                 
     0    -23.9615318     23  1.200                                             
     0     -9.5240782     23  1.200                                             
     1     -9.0304911     23  1.520                                             
     1      8.1634956     23  1.520                                             
     2     -9.5240782      7  1.500                                             
  local pseudopotential read in
  partial core-charges read in
  partial kinetic energy density read in
  kinetic energy density of atom read in
  atomic valenz-charges read in
  non local Contribution for L=           0  read in
    real space projection operators read in
  non local Contribution for L=           0  read in
    real space projection operators read in
  non local Contribution for L=           1  read in
    real space projection operators read in
  non local Contribution for L=           1  read in
    real space projection operators read in
    PAW grid and wavefunctions read in
 
   number of l-projection  operators is LMAX  =           4
   number of lm-projection operators is LMMAX =           8
 
 Optimization of the real space projectors (new method)

 maximal supplied QI-value         = 34.20
 optimisation between [QCUT,QGAM] = [  9.92, 20.18] = [ 27.55,114.04] Ry 
 Optimized for a Real-space Cutoff    1.26 Angstroem

   l    n(q)    QCUT    max X(q) W(low)/X(q) W(high)/X(q)  e(spline) 
   0      8     9.919    19.460    0.50E-03    0.23E-03    0.29E-06
   0      8     9.919    12.209    0.48E-03    0.23E-03    0.28E-06
   1      7     9.919     4.655    0.17E-03    0.75E-03    0.30E-06
 Optimization of the real space projectors (new method)

 maximal supplied QI-value         = 25.13
 optimisation between [QCUT,QGAM] = [ 10.05, 20.36] = [ 28.30,116.06] Ry 
 Optimized for a Real-space Cutoff    1.30 Angstroem

   l    n(q)    QCUT    max X(q) W(low)/X(q) W(high)/X(q)  e(spline) 
   0      8    10.053   115.676    0.49E-03    0.72E-03    0.18E-06
   0      8    10.053    87.132    0.49E-03    0.71E-03    0.18E-06
   1      7    10.053     4.429    0.32E-03    0.31E-03    0.18E-06
   1      7    10.053     2.733    0.23E-03    0.19E-03    0.20E-06
 Optimization of the real space projectors (new method)

 maximal supplied QI-value         = 25.13
 optimisation between [QCUT,QGAM] = [ 10.05, 20.36] = [ 28.30,116.06] Ry 
 Optimized for a Real-space Cutoff    1.65 Angstroem

   l    n(q)    QCUT    max X(q) W(low)/X(q) W(high)/X(q)  e(spline) 
   0     10    10.053    79.467    0.76E-04    0.72E-04    0.56E-06
   0     10    10.053    66.151    0.76E-04    0.72E-04    0.55E-06
   1     10    10.053     8.350    0.25E-03    0.92E-03    0.41E-05
   1     10    10.053     5.531    0.27E-03    0.10E-02    0.45E-05
 Optimization of the real space projectors (new method)

 maximal supplied QI-value         = 24.76
 optimisation between [QCUT,QGAM] = [ 10.15, 20.30] = [ 28.85,115.39] Ry 
 Optimized for a Real-space Cutoff    1.38 Angstroem

   l    n(q)    QCUT    max X(q) W(low)/X(q) W(high)/X(q)  e(spline) 
   0      8    10.150    20.381    0.22E-03    0.32E-03    0.29E-06
   0      8    10.150    15.268    0.23E-03    0.35E-03    0.30E-06
   1      8    10.150     5.964    0.46E-03    0.53E-03    0.21E-06
   1      8    10.150     5.382    0.38E-03    0.45E-03    0.19E-06
  PAW_PBE H 15Jun2001                   :
 energy of atom  1       EATOM=  -12.4884
 kinetic energy error for atom=    0.0098 (will be added to EATOM!!)
  PAW_PBE C 08Apr2002                   :
 energy of atom  2       EATOM= -147.1560
 kinetic energy error for atom=    0.0288 (will be added to EATOM!!)
  PAW_PBE N 08Apr2002                   :
 energy of atom  3       EATOM= -264.5486
 kinetic energy error for atom=    0.0736 (will be added to EATOM!!)
  PAW_PBE O 08Apr2002                   :
 energy of atom  4       EATOM= -432.3788
 kinetic energy error for atom=    0.1156 (will be added to EATOM!!)
 
 
 POSCAR: H12 C6 N2 O2                            
  positions in direct lattice
  velocities in cartesian coordinates
 exchange correlation table for  LEXCH =        8
   RHO(1)=    0.500       N(1)  =     2000
   RHO(2)=  100.500       N(2)  =     4000

 VTST: version 3.2, (02/03/18)

 CHAIN: initializing optimizer
 
 OPT: Using FIRE optimizer
 OPT: FIRE, Init
 OPT: FIRE, MAXMOVE       0.20000
 OPT: FIRE, TIMESTEP      0.10000
 OPT: FIRE, FTIMEMAX      1.00000
 OPT: FIRE, FTIMEINC      1.10000
 OPT: FIRE, FTIMEDEC      0.50000
 OPT: FIRE, FALPHADEC     0.99000
 OPT: FIRE, FALPHA        0.10000
 OPT: FIRE, FNMIN         5
 
 CHAIN: Read ICHAIN            0
 CHAIN: Running the NEB
 NEB:          SPRING     -5.000000
 NEB:          LCLIMB      T
 NEB:     LTANGENTOLD      F
 NEB:           LDNEB      F
 NEB:        LDNEBORG      F
 NEB:        LNEBCELL      F
 NEB:          EFIRST      0.000000
 NEB:           ELAST      0.000000
 
 POSCAR: H12 C6 N2 O2                            
  positions in direct lattice
  No initial velocities read in
 
 POSCAR: H12 C6 N2 O2                            
  positions in direct lattice
  No initial velocities read in
 


--------------------------------------------------------------------------------------------------------


 ion  position               nearest neighbor table
   1  0.384  0.551  0.516-  13 1.10
   2  0.385  0.499  0.487-  13 1.10
   3  0.380  0.501  0.546-  13 1.10
   4  0.451  0.450  0.508-  19 1.02
   5  0.525  0.496  0.552-  15 1.10
   6  0.567  0.426  0.543-  16 1.10
   7  0.525  0.402  0.509-  16 1.10
   8  0.513  0.416  0.566-  16 1.10
   9  0.525  0.556  0.496-  20 1.02
  10  0.598  0.540  0.432-  18 1.10
  11  0.545  0.551  0.406-  18 1.10
  12  0.570  0.592  0.441-  18 1.10
  13  0.396  0.517  0.517-   1 1.10   2 1.10   3 1.10  14 1.52
  14  0.446  0.517  0.523-  21 1.24  19 1.36  13 1.52
  15  0.517  0.475  0.524-   5 1.10  19 1.47  16 1.53  17 1.57
  16  0.531  0.427  0.536-   6 1.10   7 1.10   8 1.10  15 1.53
  17  0.541  0.492  0.481-  22 1.23  20 1.36  15 1.57
  18  0.565  0.556  0.437-  12 1.10  10 1.10  11 1.10  20 1.46
  19  0.468  0.478  0.518-   4 1.02  14 1.36  15 1.47
  20  0.543  0.537  0.475-   9 1.02  17 1.36  18 1.46
  21  0.467  0.552  0.532-  14 1.24
  22  0.558  0.466  0.454-  17 1.23
 
  LATTYP: Found a simple cubic cell.
 ALAT       =    30.0000000000
  
  Lattice vectors:
  
 A1 = (  30.0000000000,   0.0000000000,   0.0000000000)
 A2 = (   0.0000000000,  30.0000000000,   0.0000000000)
 A3 = (   0.0000000000,   0.0000000000,  30.0000000000)


Analysis of symmetry for initial positions (statically):
=====================================================================
 Subroutine PRICEL returns:
 Original cell was already a primitive cell.
 

 Routine SETGRP: Setting up the symmetry group for a 
 simple cubic supercell.


 Subroutine GETGRP returns: Found  1 space group operations
 (whereof  1 operations were pure point group operations)
 out of a pool of 48 trial point group operations.


The static configuration has the point symmetry C_1 .


Analysis of symmetry for dynamics (positions and initial velocities):
=====================================================================
 Subroutine PRICEL returns:
 Original cell was already a primitive cell.
 

 Routine SETGRP: Setting up the symmetry group for a 
 simple cubic supercell.


 Subroutine GETGRP returns: Found  1 space group operations
 (whereof  1 operations were pure point group operations)
 out of a pool of 48 trial point group operations.


The dynamic configuration has the point symmetry C_1 .
 
 
 KPOINTS: Mo2C                                    

Automatic generation of k-mesh.
Space group operators:
 irot       det(A)        alpha          n_x          n_y          n_z        tau_x        tau_y        tau_z
    1     1.000000     0.000000     1.000000     0.000000     0.000000     0.000000     0.000000     0.000000
 
 Subroutine IBZKPT returns following result:
 ===========================================
 
 Found      4 irreducible k-points:
 
 Following reciprocal coordinates:
            Coordinates               Weight
  0.250000  0.250000  0.250000      2.000000
 -0.250000  0.250000  0.250000      2.000000
  0.250000 -0.250000  0.250000      2.000000
 -0.250000 -0.250000  0.250000      2.000000
 
 Following cartesian coordinates:
            Coordinates               Weight
  0.008333  0.008333  0.008333      2.000000
 -0.008333  0.008333  0.008333      2.000000
  0.008333 -0.008333  0.008333      2.000000
 -0.008333 -0.008333  0.008333      2.000000
 


--------------------------------------------------------------------------------------------------------




 Dimension of arrays:
   k-points           NKPTS =      4   k-points in BZ     NKDIM =      4   number of bands    NBANDS=     41
   number of dos      NEDOS =    301   number of ions     NIONS =     22
   non local maximal  LDIM  =      4   non local SUM 2l+1 LMDIM =      8
   total plane-waves  NPLWV = ******
   max r-space proj   IRMAX =   2395   max aug-charges    IRDMAX=   1821
   dimension x,y,z NGX =   150 NGY =  150 NGZ =  150
   dimension x,y,z NGXF=   300 NGYF=  300 NGZF=  300
   support grid    NGXF=   300 NGYF=  300 NGZF=  300
   ions per type =              12   6   2   2
 NGX,Y,Z   is equivalent  to a cutoff of   8.31,  8.31,  8.31 a.u.
 NGXF,Y,Z  is equivalent  to a cutoff of  16.62, 16.62, 16.62 a.u.


 I would recommend the setting:
   dimension x,y,z NGX =   147 NGY =  147 NGZ =  147
 SYSTEM =  unknown system                          
 POSCAR =  H12 C6 N2 O2                            

 Startparameter for this run:
   NWRITE =      2    write-flag & timer
   PREC   = normal    normal or accurate (medium, high low for compatibility)
   ISTART =      0    job   : 0-new  1-cont  2-samecut
   ICHARG =      2    charge: 1-file 2-atom 10-const
   ISPIN  =      1    spin polarized calculation?
   LNONCOLLINEAR =      F non collinear calculations
   LSORBIT =      F    spin-orbit coupling
   INIWAV =      1    electr: 0-lowe 1-rand  2-diag
   LASPH  =      F    aspherical Exc in radial PAW
   METAGGA=      F    non-selfconsistent MetaGGA calc.

 Electronic Relaxation 1
   ENCUT  =  400.0 eV  29.40 Ry    5.42 a.u.  48.92 48.92 48.92*2*pi/ulx,y,z
   ENINI  =  400.0     initial cutoff
   ENAUG  =  644.9 eV  augmentation charge cutoff
   NELM   =    500;   NELMIN=  6; NELMDL= -5     # of ELM steps 
   EDIFF  = 0.1E-03   stopping-criterion for ELM
   LREAL  =      T    real-space projection
   NLSPLINE    = F    spline interpolate recip. space projectors
   LCOMPAT=      F    compatible to vasp.4.4
   GGA_COMPAT  = T    GGA compatible to vasp.4.4-vasp.4.6
   LMAXPAW     = -100 max onsite density
   LMAXMIX     =    2 max onsite mixed and CHGCAR
   VOSKOWN=      0    Vosko Wilk Nusair interpolation
   ROPT   =   -0.00050  -0.00050  -0.00050  -0.00050
 Ionic relaxation
   EDIFFG = -.1E+00   stopping-criterion for IOM
   NSW    =    300    number of steps for IOM
   NBLOCK =      1;   KBLOCK =    300    inner block; outer block 
   IBRION =      3    ionic relax: 0-MD 1-quasi-New 2-CG
   NFREE  =      0    steps in history (QN), initial steepest desc. (CG)
   ISIF   =      2    stress and relaxation
   IWAVPR =     11    prediction:  0-non 1-charg 2-wave 3-comb
   ISYM   =      2    0-nonsym 1-usesym 2-fastsym
   LCORR  =      T    Harris-Foulkes like correction to forces

   POTIM  = 0.0000    time-step for ionic-motion
   TEIN   =    0.0    initial temperature
   TEBEG  =    0.0;   TEEND  =   0.0 temperature during run
   SMASS  =   2.00    Nose mass-parameter (am)
   estimated Nose-frequenzy (Omega)   =  0.24E+10 period in steps =  0.00 mass=   0.137E-25a.u.
   SCALEE = 1.0000    scale energy and forces
   NPACO  =    256;   APACO  = 16.0  distance and # of slots for P.C.
   PSTRESS=    0.0 pullay stress

  Mass of Ions in am
   POMASS =   1.00 12.01 14.00 16.00
  Ionic Valenz
   ZVAL   =   1.00  4.00  5.00  6.00
  Atomic Wigner-Seitz radii
   RWIGS  =  -1.00 -1.00 -1.00 -1.00
  virtual crystal weights 
   VCA    =   1.00  1.00  1.00  1.00
   NELECT =      58.0000    total number of electrons
   NUPDOWN=      -1.0000    fix difference up-down

 DOS related values:
   EMIN   =  10.00;   EMAX   =-10.00  energy-range for DOS
   EFERMI =   0.00
   ISMEAR =     0;   SIGMA  =   0.20  broadening in eV -4-tet -1-fermi 0-gaus

 Electronic relaxation 2 (details)
   IALGO  =     38    algorithm
   LDIAG  =      T    sub-space diagonalisation (order eigenvalues)
   LSUBROT=      F    optimize rotation matrix (better conditioning)
   TURBO    =      0    0=normal 1=particle mesh
   IRESTART =      0    0=no restart 2=restart with 2 vectors
   NREBOOT  =      0    no. of reboots
   NMIN     =      0    reboot dimension
   EREF     =   0.00    reference energy to select bands
   IMIX   =      4    mixing-type and parameters
     AMIX     =   0.40;   BMIX     =  1.00
     AMIX_MAG =   1.60;   BMIX_MAG =  1.00
     AMIN     =   0.10
     WC   =   100.;   INIMIX=   1;  MIXPRE=   1;  MAXMIX= -45

 Intra band minimization:
   WEIMIN = 0.0010     energy-eigenvalue tresh-hold
   EBREAK =  0.61E-06  absolut break condition
   DEPER  =   0.30     relativ break condition  

   TIME   =   0.40     timestep for ELM

  volume/ion in A,a.u.               =    1227.27      8282.05
  Fermi-wavevector in a.u.,A,eV,Ry     =   0.211234  0.399174  0.607087  0.044620
  Thomas-Fermi vector in A             =   0.980021
 
 Write flags
   LWAVE  =      F    write WAVECAR
   LCHARG =      F    write CHGCAR
   LVTOT  =      F    write LOCPOT, total local potential
   LVHAR  =      F    write LOCPOT, Hartree potential only
   LELF   =      F    write electronic localiz. function (ELF)
   LORBIT =      0    0 simple, 1 ext, 2 COOP (PROOUT)


 Dipole corrections
   LMONO  =      F    monopole corrections only (constant potential shift)
   LDIPOL =      F    correct potential (dipole corrections)
   IDIPOL =      0    1-x, 2-y, 3-z, 4-all directions 
   EPSILON=  1.0000000 bulk dielectric constant

 Exchange correlation treatment:
   GGA     =    PE    GGA type
   LEXCH   =     8    internal setting for exchange type
   VOSKOWN=      0    Vosko Wilk Nusair interpolation
   LHFCALC =     F    Hartree Fock is set to
   LHFONE  =     F    Hartree Fock one center treatment
   AEXX    =    0.0000 exact exchange contribution

 Linear response parameters
   LEPSILON=     F    determine dielectric tensor
   LRPA    =     F    only Hartree local field effects (RPA)
   LNABLA  =     F    use nabla operator in PAW spheres
   LVEL    =     F    velocity operator in full k-point grid
   LINTERFAST=   F  fast interpolation
   KINTER  =     0    interpolate to denser k-point grid
   CSHIFT  =0.1000    complex shift for real part using Kramers Kronig
   OMEGAMAX=  -1.0    maximum frequency
   DEG_THRESHOLD= 0.2000000E-02 threshold for treating states as degnerate
   RTIME   =    0.100 relaxation time in fs

 Orbital magnetization related:
   ORBITALMAG=     F  switch on orbital magnetization
   LCHIMAG   =     F  perturbation theory with respect to B field
   DQ        =  0.001000  dq finite difference perturbation B field



--------------------------------------------------------------------------------------------------------


 quickmin algorithm: (dynamic with friction)
 charge density and potential will be updated during run
 non-spin polarized calculation
 Variant of blocked Davidson
 Davidson routine will perform the subspace rotation
 perform sub-space diagonalisation
    after iterative eigenvector-optimisation
 modified Broyden-mixing scheme, WC =      100.0
 initial mixing is a Kerker type mixing with AMIX =  0.4000 and BMIX =      1.0000
 Hartree-type preconditioning will be used
 using additional bands           12
 real space projection scheme for non local part
 use partial core corrections
 calculate Harris-corrections to forces 
   (improved forces if not selfconsistent)
 use gradient corrections 
 use of overlap-Matrix (Vanderbilt PP)
 Gauss-broadening in eV      SIGMA  =   0.20


--------------------------------------------------------------------------------------------------------


  energy-cutoff  :      400.00
  volume of cell :    27000.00
      direct lattice vectors                 reciprocal lattice vectors
    30.000000000  0.000000000  0.000000000     0.033333333  0.000000000  0.000000000
     0.000000000 30.000000000  0.000000000     0.000000000  0.033333333  0.000000000
     0.000000000  0.000000000 30.000000000     0.000000000  0.000000000  0.033333333

  length of vectors
    30.000000000 30.000000000 30.000000000     0.033333333  0.033333333  0.033333333


 
 k-points in units of 2pi/SCALE and weight: Mo2C                                    
   0.00833333  0.00833333  0.00833333       0.250
  -0.00833333  0.00833333  0.00833333       0.250
   0.00833333 -0.00833333  0.00833333       0.250
  -0.00833333 -0.00833333  0.00833333       0.250
 
 k-points in reciprocal lattice and weights: Mo2C                                    
   0.25000000  0.25000000  0.25000000       0.250
  -0.25000000  0.25000000  0.25000000       0.250
   0.25000000 -0.25000000  0.25000000       0.250
  -0.25000000 -0.25000000  0.25000000       0.250
 
 position of ions in fractional coordinates (direct lattice) 
   0.38418590  0.55122225  0.51560708
   0.38498334  0.49885107  0.48725650
   0.37993708  0.50095593  0.54636129
   0.45141207  0.45022229  0.50789024
   0.52475558  0.49637126  0.55223879
   0.56659160  0.42586214  0.54282989
   0.52527895  0.40247618  0.50900278
   0.51336442  0.41593411  0.56606897
   0.52451393  0.55644849  0.49649972
   0.59751669  0.53984481  0.43187864
   0.54547132  0.55128606  0.40574896
   0.56976097  0.59212167  0.44143607
   0.39594850  0.51669475  0.51735893
   0.44628587  0.51735555  0.52276884
   0.51685645  0.47458826  0.52366281
   0.53075243  0.42698949  0.53570361
   0.54137794  0.49200929  0.48086196
   0.56498639  0.55615305  0.43652909
   0.46826771  0.47780590  0.51803201
   0.54296562  0.53704219  0.47538623
   0.46661202  0.55219080  0.53195862
   0.55813176  0.46608581  0.45364930
 
 position of ions in cartesian coordinates  (Angst):
  11.52557715 16.53666749 15.46821253
  11.54950008 14.96553213 14.61769514
  11.39811237 15.02867796 16.39083858
  13.54236206 13.50666857 15.23670714
  15.74266742 14.89113771 16.56716366
  16.99774785 12.77586410 16.28489666
  15.75836856 12.07428545 15.27008342
  15.40093271 12.47802328 16.98206923
  15.73541779 16.69345464 14.89499156
  17.92550066 16.19534438 12.95635926
  16.36413952 16.53858189 12.17246890
  17.09282923 17.76365007 13.24308197
  11.87845487 15.50084255 15.52076794
  13.38857595 15.52066663 15.68306516
  15.50569360 14.23764793 15.70988428
  15.92257290 12.80968477 16.07110821
  16.24133829 14.76027860 14.42585881
  16.94959177 16.68459147 13.09587282
  14.04803141 14.33417707 15.54096043
  16.28896859 16.11126557 14.26158683
  13.99836068 16.56572389 15.95875847
  16.74395272 13.98257441 13.60947894
 


--------------------------------------------------------------------------------------------------------


 k-point  1 :   0.2500 0.2500 0.2500  plane waves:  490454
 k-point  2 :  -0.2500 0.2500 0.2500  plane waves:  490454
 k-point  3 :   0.2500-0.2500 0.2500  plane waves:  490454
 k-point  4 :  -0.2500-0.2500 0.2500  plane waves:  490454

 maximum and minimum number of plane-waves per node :    490454   490454

 maximum number of plane-waves:    490454
 maximum index in each direction: 
   IXMAX=   49   IYMAX=   49   IZMAX=   48
   IXMIN=  -49   IYMIN=  -49   IZMIN=  -49

 WARNING: aliasing errors must be expected set NGX to 198 to avoid them
 WARNING: aliasing errors must be expected set NGY to 198 to avoid them
 WARNING: aliasing errors must be expected set NGZ to 196 to avoid them
 aliasing errors are usually negligible using standard VASP settings
 and one can safely disregard these warnings

 serial   3D FFT for wavefunctions
 parallel 3D FFT for charge:
    minimum data exchange during FFTs selected (reduces bandwidth)


 total amount of memory used by VASP on root node  4333712. kBytes
========================================================================

   base      :      30000. kBytes
   nonlr-proj:       2407. kBytes
   fftplans  :     924480. kBytes
   grid      :    2089440. kBytes
   one-center:         67. kBytes
   wavefun   :    1287318. kBytes
 
     INWAV:  cpu time    0.0010: real time    0.0002
 Broyden mixing: mesh for mixing (old mesh)
   NGX = 97   NGY = 97   NGZ = 97
  (NGX  =300   NGY  =300   NGZ  =300)
  gives a total of 912673 points

 initial charge density was supplied:
 charge density of overlapping atoms calculated
 number of electron      58.0000000 magnetization 
 keeping initial charge density in first step


--------------------------------------------------------------------------------------------------------


 Maximum index for non-local projection operator         2294
 Maximum index for augmentation-charges         1584 (set IRDMAX)


--------------------------------------------------------------------------------------------------------


 First call to EWALD:  gamma=   0.059
 Maximum number of real-space cells 3x 3x 3
 Maximum number of reciprocal cells 3x 3x 3

 FEWALD executed in parallel
    FEWALD:  cpu time    0.0050: real time    0.0048


----------------------------------------- Iteration    1(   1)  ---------------------------------------


    POTLOK:  cpu time   19.2121: real time   19.1974
    SETDIJ:  cpu time    0.0280: real time    0.0281
     EDDAV:  cpu time  250.3699: real time  250.1609
       DOS:  cpu time    0.0010: real time    0.0009
    --------------------------------------------
      LOOP:  cpu time  269.6150: real time  269.3916

 eigenvalue-minimisations  :   392
 total energy-change (2. order) : 0.6104484E+03  (-0.7932669E+03)
 number of electron      58.0000000 magnetization 
 augmentation part       58.0000000 magnetization 

 Free energy of the ion-electron system (eV)
  ---------------------------------------------------
  alpha Z        PSCENC =         0.51957394
  Ewald energy   TEWEN  =      6057.53836240
  -Hartree energ DENC   =     -7801.64171887
  -exchange      EXHF   =         0.00000000
  -V(xc)+E(xc)   XCENC  =       201.86696332
  PAW double counting   =      1779.70502452    -1789.20730229
  entropy T*S    EENTRO =        -0.78590894
  eigenvalues    EBANDS =      -263.52994407
  atomic energy  EATOM  =      2425.98333211
  Solvation  Ediel_sol  =         0.00000000
  ---------------------------------------------------
  free energy    TOTEN  =       610.44838211 eV

  energy without entropy =      611.23429105  energy(sigma->0) =      610.84133658


--------------------------------------------------------------------------------------------------------




----------------------------------------- Iteration    1(   2)  ---------------------------------------


     EDDAV:  cpu time  348.4160: real time  348.1267
       DOS:  cpu time    0.0000: real time    0.0008
    --------------------------------------------
      LOOP:  cpu time  348.4170: real time  348.1301

 eigenvalue-minimisations  :   586
 total energy-change (2. order) :-0.3461486E+03  (-0.3358817E+03)
 number of electron      58.0000000 magnetization 
 augmentation part       58.0000000 magnetization 

 Free energy of the ion-electron system (eV)
  ---------------------------------------------------
  alpha Z        PSCENC =         0.51957394
  Ewald energy   TEWEN  =      6057.53836240
  -Hartree energ DENC   =     -7801.64171887
  -exchange      EXHF   =         0.00000000
  -V(xc)+E(xc)   XCENC  =       201.86696332
  PAW double counting   =      1779.70502452    -1789.20730229
  entropy T*S    EENTRO =        -0.44320289
  eigenvalues    EBANDS =      -610.02124328
  atomic energy  EATOM  =      2425.98333211
  Solvation  Ediel_sol  =         0.00000000
  ---------------------------------------------------
  free energy    TOTEN  =       264.29978895 eV

  energy without entropy =      264.74299184  energy(sigma->0) =      264.52139040


--------------------------------------------------------------------------------------------------------




----------------------------------------- Iteration    1(   3)  ---------------------------------------


     EDDAV:  cpu time  299.4055: real time  299.1560
       DOS:  cpu time    0.0000: real time    0.0005
    --------------------------------------------
      LOOP:  cpu time  299.4065: real time  299.1591

 eigenvalue-minimisations  :   488
 total energy-change (2. order) :-0.3134811E+03  (-0.3056171E+03)
 number of electron      58.0000000 magnetization 
 augmentation part       58.0000000 magnetization 

 Free energy of the ion-electron system (eV)
  ---------------------------------------------------
  alpha Z        PSCENC =         0.51957394
  Ewald energy   TEWEN  =      6057.53836240
  -Hartree energ DENC   =     -7801.64171887
  -exchange      EXHF   =         0.00000000
  -V(xc)+E(xc)   XCENC  =       201.86696332
  PAW double counting   =      1779.70502452    -1789.20730229
  entropy T*S    EENTRO =        -0.00000067
  eigenvalues    EBANDS =      -923.94558780
  atomic energy  EATOM  =      2425.98333211
  Solvation  Ediel_sol  =         0.00000000
  ---------------------------------------------------
  free energy    TOTEN  =       -49.18135336 eV

  energy without entropy =      -49.18135268  energy(sigma->0) =      -49.18135302


--------------------------------------------------------------------------------------------------------




----------------------------------------- Iteration    1(   4)  ---------------------------------------


     EDDAV:  cpu time  253.8424: real time  253.6308
       DOS:  cpu time    0.0000: real time    0.0005
    --------------------------------------------
      LOOP:  cpu time  253.8434: real time  253.6338

 eigenvalue-minimisations  :   399
 total energy-change (2. order) :-0.8800091E+02  (-0.8785891E+02)
 number of electron      58.0000000 magnetization 
 augmentation part       58.0000000 magnetization 

 Free energy of the ion-electron system (eV)
  ---------------------------------------------------
  alpha Z        PSCENC =         0.51957394
  Ewald energy   TEWEN  =      6057.53836240
  -Hartree energ DENC   =     -7801.64171887
  -exchange      EXHF   =         0.00000000
  -V(xc)+E(xc)   XCENC  =       201.86696332
  PAW double counting   =      1779.70502452    -1789.20730229
  entropy T*S    EENTRO =         0.00000000
  eigenvalues    EBANDS =     -1011.94649949
  atomic energy  EATOM  =      2425.98333211
  Solvation  Ediel_sol  =         0.00000000
  ---------------------------------------------------
  free energy    TOTEN  =      -137.18226437 eV

  energy without entropy =     -137.18226437  energy(sigma->0) =     -137.18226437


--------------------------------------------------------------------------------------------------------




----------------------------------------- Iteration    1(   5)  ---------------------------------------


     EDDAV:  cpu time  270.8928: real time  270.6677
       DOS:  cpu time    0.0000: real time    0.0005
    CHARGE:  cpu time   16.3995: real time   16.3862
    MIXING:  cpu time    0.5929: real time    0.5917
    --------------------------------------------
      LOOP:  cpu time  287.8862: real time  287.6485

 eigenvalue-minimisations  :   432
 total energy-change (2. order) :-0.4679352E+01  (-0.4660990E+01)
 number of electron      57.9999970 magnetization 
 augmentation part        2.9715244 magnetization 

 Broyden mixing:
  rms(total) = 0.19530E+01    rms(broyden)= 0.19509E+01
  rms(prec ) = 0.20283E+01
  weight for this iteration     100.00

 Free energy of the ion-electron system (eV)
  ---------------------------------------------------
  alpha Z        PSCENC =         0.51957394
  Ewald energy   TEWEN  =      6057.53836240
  -Hartree energ DENC   =     -7801.64171887
  -exchange      EXHF   =         0.00000000
  -V(xc)+E(xc)   XCENC  =       201.86696332
  PAW double counting   =      1779.70502452    -1789.20730229
  entropy T*S    EENTRO =         0.00000000
  eigenvalues    EBANDS =     -1016.62585136
  atomic energy  EATOM  =      2425.98333211
  Solvation  Ediel_sol  =         0.00000000
  ---------------------------------------------------
  free energy    TOTEN  =      -141.86161624 eV

  energy without entropy =     -141.86161624  energy(sigma->0) =     -141.86161624


--------------------------------------------------------------------------------------------------------




----------------------------------------- Iteration    1(   6)  ---------------------------------------


    POTLOK:  cpu time   18.1812: real time   18.1661
    SETDIJ:  cpu time    0.0280: real time    0.0284
     EDDAV:  cpu time  263.8759: real time  263.6562
       DOS:  cpu time    0.0000: real time    0.0005
    CHARGE:  cpu time   16.2965: real time   16.2830
    MIXING:  cpu time    0.6169: real time    0.6169
    --------------------------------------------
      LOOP:  cpu time  299.0005: real time  298.7612

 eigenvalue-minimisations  :   416
 total energy-change (2. order) : 0.1009712E+02  (-0.2400958E+01)
 number of electron      57.9999981 magnetization 
 augmentation part        2.6267771 magnetization 

 Broyden mixing:
  rms(total) = 0.99753E+00    rms(broyden)= 0.99705E+00
  rms(prec ) = 0.10257E+01
  weight for this iteration     100.00

 eigenvalues of (default mixing * dielectric matrix)
  average eigenvalue GAMMA=   1.2659
  1.2659

 Free energy of the ion-electron system (eV)
  ---------------------------------------------------
  alpha Z        PSCENC =         0.51957394
  Ewald energy   TEWEN  =      6057.53836240
  -Hartree energ DENC   =     -7916.93834989
  -exchange      EXHF   =         0.00000000
  -V(xc)+E(xc)   XCENC  =       207.95536797
  PAW double counting   =      2771.13221006    -2781.99638336
  entropy T*S    EENTRO =         0.00000000
  eigenvalues    EBANDS =      -895.95861278
  atomic energy  EATOM  =      2425.98333211
  Solvation  Ediel_sol  =         0.00000000
  ---------------------------------------------------
  free energy    TOTEN  =      -131.76449955 eV

  energy without entropy =     -131.76449955  energy(sigma->0) =     -131.76449955


--------------------------------------------------------------------------------------------------------




----------------------------------------- Iteration    1(   7)  ---------------------------------------


    POTLOK:  cpu time   18.1212: real time   18.1069
    SETDIJ:  cpu time    0.0280: real time    0.0284
     EDDAV:  cpu time  268.5152: real time  268.2908
       DOS:  cpu time    0.0010: real time    0.0005
    CHARGE:  cpu time   16.3105: real time   16.2971
    MIXING:  cpu time    0.6499: real time    0.6504
    --------------------------------------------
      LOOP:  cpu time  303.6278: real time  303.3772

 eigenvalue-minimisations  :   424
 total energy-change (2. order) : 0.1746313E+01  (-0.4467336E+00)
 number of electron      57.9999979 magnetization 
 augmentation part        2.6178445 magnetization 

 Broyden mixing:
  rms(total) = 0.51576E+00    rms(broyden)= 0.51565E+00
  rms(prec ) = 0.52852E+00
  weight for this iteration     100.00

 eigenvalues of (default mixing * dielectric matrix)
  average eigenvalue GAMMA=   1.5585
  1.0924  2.0247

 Free energy of the ion-electron system (eV)
  ---------------------------------------------------
  alpha Z        PSCENC =         0.51957394
  Ewald energy   TEWEN  =      6057.53836240
  -Hartree energ DENC   =     -7978.36634832
  -exchange      EXHF   =         0.00000000
  -V(xc)+E(xc)   XCENC  =       210.93793066
  PAW double counting   =      3725.19688043    -3736.31903557
  entropy T*S    EENTRO =         0.00000000
  eigenvalues    EBANDS =      -835.50888217
  atomic energy  EATOM  =      2425.98333211
  Solvation  Ediel_sol  =         0.00000000
  ---------------------------------------------------
  free energy    TOTEN  =      -130.01818651 eV

  energy without entropy =     -130.01818651  energy(sigma->0) =     -130.01818651


--------------------------------------------------------------------------------------------------------




----------------------------------------- Iteration    1(   8)  ---------------------------------------


    POTLOK:  cpu time   18.1162: real time   18.1017
    SETDIJ:  cpu time    0.0280: real time    0.0283
     EDDAV:  cpu time  272.0516: real time  271.8249
       DOS:  cpu time    0.0000: real time    0.0005
    CHARGE:  cpu time   16.2695: real time   16.2556
    MIXING:  cpu time    0.6819: real time    0.6815
    --------------------------------------------
      LOOP:  cpu time  307.1503: real time  306.8961

 eigenvalue-minimisations  :   432
 total energy-change (2. order) : 0.4918778E+00  (-0.8787915E-01)
 number of electron      57.9999980 magnetization 
 augmentation part        2.5886982 magnetization 

 Broyden mixing:
  rms(total) = 0.15482E+00    rms(broyden)= 0.15476E+00
  rms(prec ) = 0.16234E+00
  weight for this iteration     100.00

 eigenvalues of (default mixing * dielectric matrix)
  average eigenvalue GAMMA=   1.5417
  2.3817  0.9453  1.2982

 Free energy of the ion-electron system (eV)
  ---------------------------------------------------
  alpha Z        PSCENC =         0.51957394
  Ewald energy   TEWEN  =      6057.53836240
  -Hartree energ DENC   =     -8019.52520433
  -exchange      EXHF   =         0.00000000
  -V(xc)+E(xc)   XCENC  =       213.07888720
  PAW double counting   =      4543.69875094    -4555.00842379
  entropy T*S    EENTRO =         0.00000000
  eigenvalues    EBANDS =      -795.81158714
  atomic energy  EATOM  =      2425.98333211
  Solvation  Ediel_sol  =         0.00000000
  ---------------------------------------------------
  free energy    TOTEN  =      -129.52630867 eV

  energy without entropy =     -129.52630867  energy(sigma->0) =     -129.52630867


--------------------------------------------------------------------------------------------------------




----------------------------------------- Iteration    1(   9)  ---------------------------------------


    POTLOK:  cpu time   18.1762: real time   18.1629
    SETDIJ:  cpu time    0.0290: real time    0.0283
     EDDAV:  cpu time  289.1960: real time  288.9550
       DOS:  cpu time    0.0010: real time    0.0005
    CHARGE:  cpu time   16.2905: real time   16.2769
    MIXING:  cpu time    0.7349: real time    0.7342
    --------------------------------------------
      LOOP:  cpu time  324.4297: real time  324.1614

 eigenvalue-minimisations  :   464
 total energy-change (2. order) : 0.6794538E-01  (-0.1032104E-01)
 number of electron      57.9999980 magnetization 
 augmentation part        2.5802056 magnetization 

 Broyden mixing:
  rms(total) = 0.57142E-01    rms(broyden)= 0.57111E-01
  rms(prec ) = 0.65439E-01
  weight for this iteration     100.00

 eigenvalues of (default mixing * dielectric matrix)
  average eigenvalue GAMMA=   1.5146
  2.2078  1.0484  1.0484  1.7538

 Free energy of the ion-electron system (eV)
  ---------------------------------------------------
  alpha Z        PSCENC =         0.51957394
  Ewald energy   TEWEN  =      6057.53836240
  -Hartree energ DENC   =     -8033.30974229
  -exchange      EXHF   =         0.00000000
  -V(xc)+E(xc)   XCENC  =       213.63967577
  PAW double counting   =      4778.00514681    -4789.28421271
  entropy T*S    EENTRO =         0.00000000
  eigenvalues    EBANDS =      -782.55049932
  atomic energy  EATOM  =      2425.98333211
  Solvation  Ediel_sol  =         0.00000000
  ---------------------------------------------------
  free energy    TOTEN  =      -129.45836330 eV

  energy without entropy =     -129.45836330  energy(sigma->0) =     -129.45836330


--------------------------------------------------------------------------------------------------------




----------------------------------------- Iteration    1(  10)  ---------------------------------------


    POTLOK:  cpu time   18.3372: real time   18.3218
    SETDIJ:  cpu time    0.0280: real time    0.0283
     EDDAV:  cpu time  265.4147: real time  265.1932
       DOS:  cpu time    0.0000: real time    0.0005
    CHARGE:  cpu time   16.3155: real time   16.3023
    MIXING:  cpu time    0.7859: real time    0.7843
    --------------------------------------------
      LOOP:  cpu time  300.8823: real time  300.6339

 eigenvalue-minimisations  :   416
 total energy-change (2. order) : 0.1072327E-01  (-0.2592529E-02)
 number of electron      57.9999980 magnetization 
 augmentation part        2.5873959 magnetization 

 Broyden mixing:
  rms(total) = 0.25722E-01    rms(broyden)= 0.25698E-01
  rms(prec ) = 0.35488E-01
  weight for this iteration     100.00

 eigenvalues of (default mixing * dielectric matrix)
  average eigenvalue GAMMA=   1.4855
  2.1766  2.1766  0.9503  0.9503  1.1738

 Free energy of the ion-electron system (eV)
  ---------------------------------------------------
  alpha Z        PSCENC =         0.51957394
  Ewald energy   TEWEN  =      6057.53836240
  -Hartree energ DENC   =     -8038.34903869
  -exchange      EXHF   =         0.00000000
  -V(xc)+E(xc)   XCENC  =       213.65203420
  PAW double counting   =      4771.61278449    -4782.84198449
  entropy T*S    EENTRO =         0.00000000
  eigenvalues    EBANDS =      -777.56270397
  atomic energy  EATOM  =      2425.98333211
  Solvation  Ediel_sol  =         0.00000000
  ---------------------------------------------------
  free energy    TOTEN  =      -129.44764002 eV

  energy without entropy =     -129.44764002  energy(sigma->0) =     -129.44764002


--------------------------------------------------------------------------------------------------------




----------------------------------------- Iteration    1(  11)  ---------------------------------------


    POTLOK:  cpu time   18.1612: real time   18.1468
    SETDIJ:  cpu time    0.0280: real time    0.0282
     EDDAV:  cpu time  285.0467: real time  284.8091
       DOS:  cpu time    0.0000: real time    0.0005
    CHARGE:  cpu time   16.3115: real time   16.2981
    MIXING:  cpu time    0.8019: real time    0.8010
    --------------------------------------------
      LOOP:  cpu time  320.3513: real time  320.0873

 eigenvalue-minimisations  :   456
 total energy-change (2. order) : 0.5041608E-02  (-0.7906546E-03)
 number of electron      57.9999980 magnetization 
 augmentation part        2.5830475 magnetization 

 Broyden mixing:
  rms(total) = 0.16030E-01    rms(broyden)= 0.16023E-01
  rms(prec ) = 0.24615E-01
  weight for this iteration     100.00

 eigenvalues of (default mixing * dielectric matrix)
  average eigenvalue GAMMA=   1.5508
  2.4724  2.4724  0.9463  0.9463  1.2338  1.2338

 Free energy of the ion-electron system (eV)
  ---------------------------------------------------
  alpha Z        PSCENC =         0.51957394
  Ewald energy   TEWEN  =      6057.53836240
  -Hartree energ DENC   =     -8044.19750729
  -exchange      EXHF   =         0.00000000
  -V(xc)+E(xc)   XCENC  =       213.75730670
  PAW double counting   =      4774.32547763    -4785.55361304
  entropy T*S    EENTRO =         0.00000000
  eigenvalues    EBANDS =      -771.81553086
  atomic energy  EATOM  =      2425.98333211
  Solvation  Ediel_sol  =         0.00000000
  ---------------------------------------------------
  free energy    TOTEN  =      -129.44259842 eV

  energy without entropy =     -129.44259842  energy(sigma->0) =     -129.44259842


--------------------------------------------------------------------------------------------------------




----------------------------------------- Iteration    1(  12)  ---------------------------------------


    POTLOK:  cpu time   18.2392: real time   18.2248
    SETDIJ:  cpu time    0.0280: real time    0.0283
     EDDAV:  cpu time  238.6557: real time  238.4569
       DOS:  cpu time    0.0000: real time    0.0005
    CHARGE:  cpu time   16.3295: real time   16.3159
    MIXING:  cpu time    0.8309: real time    0.8307
    --------------------------------------------
      LOOP:  cpu time  274.0853: real time  273.8604

 eigenvalue-minimisations  :   366
 total energy-change (2. order) :-0.1140011E-02  (-0.6147691E-03)
 number of electron      57.9999980 magnetization 
 augmentation part        2.5822107 magnetization 

 Broyden mixing:
  rms(total) = 0.97466E-02    rms(broyden)= 0.97415E-02
  rms(prec ) = 0.15629E-01
  weight for this iteration     100.00

 eigenvalues of (default mixing * dielectric matrix)
  average eigenvalue GAMMA=   1.6086
  2.7310  2.7310  1.4031  1.2283  1.2283  0.9694  0.9694

 Free energy of the ion-electron system (eV)
  ---------------------------------------------------
  alpha Z        PSCENC =         0.51957394
  Ewald energy   TEWEN  =      6057.53836240
  -Hartree energ DENC   =     -8051.18706318
  -exchange      EXHF   =         0.00000000
  -V(xc)+E(xc)   XCENC  =       213.84930345
  PAW double counting   =      4769.59080068    -4780.80940677
  entropy T*S    EENTRO =         0.00000000
  eigenvalues    EBANDS =      -764.92864104
  atomic energy  EATOM  =      2425.98333211
  Solvation  Ediel_sol  =         0.00000000
  ---------------------------------------------------
  free energy    TOTEN  =      -129.44373843 eV

  energy without entropy =     -129.44373843  energy(sigma->0) =     -129.44373843


--------------------------------------------------------------------------------------------------------




----------------------------------------- Iteration    1(  13)  ---------------------------------------


    POTLOK:  cpu time   18.3042: real time   18.2892
    SETDIJ:  cpu time    0.0290: real time    0.0283
     EDDAV:  cpu time  272.8465: real time  272.6197
       DOS:  cpu time    0.0000: real time    0.0005
    CHARGE:  cpu time   16.3355: real time   16.3217
    MIXING:  cpu time    0.8949: real time    0.8951
    --------------------------------------------
      LOOP:  cpu time  308.4121: real time  308.1577

 eigenvalue-minimisations  :   432
 total energy-change (2. order) :-0.5993668E-02  (-0.4289714E-03)
 number of electron      57.9999980 magnetization 
 augmentation part        2.5808969 magnetization 

 Broyden mixing:
  rms(total) = 0.58094E-02    rms(broyden)= 0.58040E-02
  rms(prec ) = 0.93698E-02
  weight for this iteration     100.00

 eigenvalues of (default mixing * dielectric matrix)
  average eigenvalue GAMMA=   1.7053
  4.0722  2.4986  1.5836  1.4501  1.0135  1.0135  0.9545  1.0563

 Free energy of the ion-electron system (eV)
  ---------------------------------------------------
  alpha Z        PSCENC =         0.51957394
  Ewald energy   TEWEN  =      6057.53836240
  -Hartree energ DENC   =     -8056.78725311
  -exchange      EXHF   =         0.00000000
  -V(xc)+E(xc)   XCENC  =       213.91484482
  PAW double counting   =      4763.83713054    -4775.05560243
  entropy T*S    EENTRO =         0.00000000
  eigenvalues    EBANDS =      -759.40012036
  atomic energy  EATOM  =      2425.98333211
  Solvation  Ediel_sol  =         0.00000000
  ---------------------------------------------------
  free energy    TOTEN  =      -129.44973210 eV

  energy without entropy =     -129.44973210  energy(sigma->0) =     -129.44973210


--------------------------------------------------------------------------------------------------------




----------------------------------------- Iteration    1(  14)  ---------------------------------------


    POTLOK:  cpu time   18.3192: real time   18.3044
    SETDIJ:  cpu time    0.0280: real time    0.0284
     EDDAV:  cpu time  252.1417: real time  251.9308
       DOS:  cpu time    0.0010: real time    0.0005
    CHARGE:  cpu time   16.3035: real time   16.2902
    MIXING:  cpu time    0.9329: real time    0.9321
    --------------------------------------------
      LOOP:  cpu time  287.7283: real time  287.4928

 eigenvalue-minimisations  :   392
 total energy-change (2. order) :-0.6069787E-02  (-0.1523109E-03)
 number of electron      57.9999980 magnetization 
 augmentation part        2.5805117 magnetization 

 Broyden mixing:
  rms(total) = 0.37686E-02    rms(broyden)= 0.37659E-02
  rms(prec ) = 0.57994E-02
  weight for this iteration     100.00

 eigenvalues of (default mixing * dielectric matrix)
  average eigenvalue GAMMA=   1.8262
  5.0346  2.4357  2.2395  1.2595  1.2595  1.1857  1.0327  0.9942  0.9942

 Free energy of the ion-electron system (eV)
  ---------------------------------------------------
  alpha Z        PSCENC =         0.51957394
  Ewald energy   TEWEN  =      6057.53836240
  -Hartree energ DENC   =     -8060.23188597
  -exchange      EXHF   =         0.00000000
  -V(xc)+E(xc)   XCENC  =       213.93813383
  PAW double counting   =      4758.29679378    -4769.51257902
  entropy T*S    EENTRO =         0.00000000
  eigenvalues    EBANDS =      -755.98753296
  atomic energy  EATOM  =      2425.98333211
  Solvation  Ediel_sol  =         0.00000000
  ---------------------------------------------------
  free energy    TOTEN  =      -129.45580188 eV

  energy without entropy =     -129.45580188  energy(sigma->0) =     -129.45580188


--------------------------------------------------------------------------------------------------------




----------------------------------------- Iteration    1(  15)  ---------------------------------------


    POTLOK:  cpu time   18.3392: real time   18.3241
    SETDIJ:  cpu time    0.0280: real time    0.0283
     EDDAV:  cpu time  255.5931: real time  255.3802
       DOS:  cpu time    0.0010: real time    0.0005
    CHARGE:  cpu time   16.2855: real time   16.2724
    MIXING:  cpu time    0.9929: real time    0.9921
    --------------------------------------------
      LOOP:  cpu time  291.2407: real time  291.0044

 eigenvalue-minimisations  :   398
 total energy-change (2. order) :-0.7844268E-02  (-0.8728178E-04)
 number of electron      57.9999980 magnetization 
 augmentation part        2.5801099 magnetization 

 Broyden mixing:
  rms(total) = 0.23152E-02    rms(broyden)= 0.23140E-02
  rms(prec ) = 0.34459E-02
  weight for this iteration     100.00

 eigenvalues of (default mixing * dielectric matrix)
  average eigenvalue GAMMA=   1.9283
  5.7402  2.8602  2.3814  1.8632  1.0526  1.0526  1.1932  1.1493  0.9951  0.9951

 Free energy of the ion-electron system (eV)
  ---------------------------------------------------
  alpha Z        PSCENC =         0.51957394
  Ewald energy   TEWEN  =      6057.53836240
  -Hartree energ DENC   =     -8062.10447583
  -exchange      EXHF   =         0.00000000
  -V(xc)+E(xc)   XCENC  =       213.94076108
  PAW double counting   =      4757.33172733    -4768.54648216
  entropy T*S    EENTRO =         0.00000000
  eigenvalues    EBANDS =      -754.12644501
  atomic energy  EATOM  =      2425.98333211
  Solvation  Ediel_sol  =         0.00000000
  ---------------------------------------------------
  free energy    TOTEN  =      -129.46364615 eV

  energy without entropy =     -129.46364615  energy(sigma->0) =     -129.46364615


--------------------------------------------------------------------------------------------------------




----------------------------------------- Iteration    1(  16)  ---------------------------------------


    POTLOK:  cpu time   18.3652: real time   18.3506
    SETDIJ:  cpu time    0.0290: real time    0.0284
     EDDAV:  cpu time  221.4003: real time  221.2149
       DOS:  cpu time    0.0000: real time    0.0005
    CHARGE:  cpu time   16.2985: real time   16.2853
    MIXING:  cpu time    1.0408: real time    1.0399
    --------------------------------------------
      LOOP:  cpu time  257.1349: real time  256.9235

 eigenvalue-minimisations  :   332
 total energy-change (2. order) :-0.6109091E-02  (-0.5131585E-04)
 number of electron      57.9999980 magnetization 
 augmentation part        2.5803509 magnetization 

 Broyden mixing:
  rms(total) = 0.13250E-02    rms(broyden)= 0.13243E-02
  rms(prec ) = 0.19433E-02
  weight for this iteration     100.00

 eigenvalues of (default mixing * dielectric matrix)
  average eigenvalue GAMMA=   1.9495
  6.2729  3.2276  2.3468  1.9398  1.2698  1.2323  1.2323  1.0179  1.0179  0.9435
  0.9435

 Free energy of the ion-electron system (eV)
  ---------------------------------------------------
  alpha Z        PSCENC =         0.51957394
  Ewald energy   TEWEN  =      6057.53836240
  -Hartree energ DENC   =     -8062.75735473
  -exchange      EXHF   =         0.00000000
  -V(xc)+E(xc)   XCENC  =       213.92926371
  PAW double counting   =      4757.64197098    -4768.85522128
  entropy T*S    EENTRO =         0.00000000
  eigenvalues    EBANDS =      -753.46968237
  atomic energy  EATOM  =      2425.98333211
  Solvation  Ediel_sol  =         0.00000000
  ---------------------------------------------------
  free energy    TOTEN  =      -129.46975524 eV

  energy without entropy =     -129.46975524  energy(sigma->0) =     -129.46975524


--------------------------------------------------------------------------------------------------------




----------------------------------------- Iteration    1(  17)  ---------------------------------------


    POTLOK:  cpu time   18.2712: real time   18.2558
    SETDIJ:  cpu time    0.0280: real time    0.0283
     EDDAV:  cpu time  224.4039: real time  224.2173
       DOS:  cpu time    0.0010: real time    0.0005
    CHARGE:  cpu time   16.3625: real time   16.3490
    MIXING:  cpu time    1.1048: real time    1.1036
    --------------------------------------------
      LOOP:  cpu time  260.1724: real time  259.9577

 eigenvalue-minimisations  :   336
 total energy-change (2. order) :-0.2442443E-02  (-0.1185833E-04)
 number of electron      57.9999980 magnetization 
 augmentation part        2.5801875 magnetization 

 Broyden mixing:
  rms(total) = 0.86691E-03    rms(broyden)= 0.86651E-03
  rms(prec ) = 0.12684E-02
  weight for this iteration     100.00

 eigenvalues of (default mixing * dielectric matrix)
  average eigenvalue GAMMA=   2.0429
  7.1736  3.6491  2.3378  2.3378  1.5304  1.5304  1.0444  1.0444  1.0340  1.0340
  0.8994  0.8994

 Free energy of the ion-electron system (eV)
  ---------------------------------------------------
  alpha Z        PSCENC =         0.51957394
  Ewald energy   TEWEN  =      6057.53836240
  -Hartree energ DENC   =     -8063.07669298
  -exchange      EXHF   =         0.00000000
  -V(xc)+E(xc)   XCENC  =       213.92687856
  PAW double counting   =      4757.68828375    -4768.90190913
  entropy T*S    EENTRO =         0.00000000
  eigenvalues    EBANDS =      -753.15002633
  atomic energy  EATOM  =      2425.98333211
  Solvation  Ediel_sol  =         0.00000000
  ---------------------------------------------------
  free energy    TOTEN  =      -129.47219769 eV

  energy without entropy =     -129.47219769  energy(sigma->0) =     -129.47219769


--------------------------------------------------------------------------------------------------------




----------------------------------------- Iteration    1(  18)  ---------------------------------------


    POTLOK:  cpu time   18.2592: real time   18.2442
    SETDIJ:  cpu time    0.0280: real time    0.0283
     EDDAV:  cpu time  197.3630: real time  197.1992
       DOS:  cpu time    0.0000: real time    0.0005
    CHARGE:  cpu time   16.2895: real time   16.2748
    MIXING:  cpu time    1.1568: real time    1.1564
    --------------------------------------------
      LOOP:  cpu time  233.0986: real time  232.9067

 eigenvalue-minimisations  :   283
 total energy-change (2. order) :-0.1786684E-02  (-0.1192688E-04)
 number of electron      57.9999980 magnetization 
 augmentation part        2.5801283 magnetization 

 Broyden mixing:
  rms(total) = 0.51732E-03    rms(broyden)= 0.51707E-03
  rms(prec ) = 0.74368E-03
  weight for this iteration     100.00

 eigenvalues of (default mixing * dielectric matrix)
  average eigenvalue GAMMA=   2.0925
  7.6098  4.2797  2.5037  2.2839  1.7758  1.3700  1.3700  1.0407  1.0407  0.9377
  0.9377  1.0263  1.0263

 Free energy of the ion-electron system (eV)
  ---------------------------------------------------
  alpha Z        PSCENC =         0.51957394
  Ewald energy   TEWEN  =      6057.53836240
  -Hartree energ DENC   =     -8063.27046487
  -exchange      EXHF   =         0.00000000
  -V(xc)+E(xc)   XCENC  =       213.92391008
  PAW double counting   =      4757.71586487    -4768.92938662
  entropy T*S    EENTRO =         0.00000000
  eigenvalues    EBANDS =      -752.95517626
  atomic energy  EATOM  =      2425.98333211
  Solvation  Ediel_sol  =         0.00000000
  ---------------------------------------------------
  free energy    TOTEN  =      -129.47398437 eV

  energy without entropy =     -129.47398437  energy(sigma->0) =     -129.47398437


--------------------------------------------------------------------------------------------------------




----------------------------------------- Iteration    1(  19)  ---------------------------------------


    POTLOK:  cpu time   18.2332: real time   18.2187
    SETDIJ:  cpu time    0.0280: real time    0.0283
     EDDAV:  cpu time  220.7114: real time  220.5267
       DOS:  cpu time    0.0000: real time    0.0005
    CHARGE:  cpu time   16.2585: real time   16.2448
    MIXING:  cpu time    1.2348: real time    1.2338
    --------------------------------------------
      LOOP:  cpu time  256.4680: real time  256.2565

 eigenvalue-minimisations  :   328
 total energy-change (2. order) :-0.8968835E-03  (-0.4935318E-05)
 number of electron      57.9999980 magnetization 
 augmentation part        2.5801005 magnetization 

 Broyden mixing:
  rms(total) = 0.32765E-03    rms(broyden)= 0.32746E-03
  rms(prec ) = 0.45411E-03
  weight for this iteration     100.00

 eigenvalues of (default mixing * dielectric matrix)
  average eigenvalue GAMMA=   2.1472
  8.1104  4.7818  2.6274  2.6274  1.6416  1.6416  1.6304  1.0404  1.0404  0.9177
  1.0298  1.0298  0.9712  0.9712

 Free energy of the ion-electron system (eV)
  ---------------------------------------------------
  alpha Z        PSCENC =         0.51957394
  Ewald energy   TEWEN  =      6057.53836240
  -Hartree energ DENC   =     -8063.34170307
  -exchange      EXHF   =         0.00000000
  -V(xc)+E(xc)   XCENC  =       213.92326687
  PAW double counting   =      4758.11429334    -4769.32786260
  entropy T*S    EENTRO =         0.00000000
  eigenvalues    EBANDS =      -752.88414425
  atomic energy  EATOM  =      2425.98333211
  Solvation  Ediel_sol  =         0.00000000
  ---------------------------------------------------
  free energy    TOTEN  =      -129.47488125 eV

  energy without entropy =     -129.47488125  energy(sigma->0) =     -129.47488125


--------------------------------------------------------------------------------------------------------




----------------------------------------- Iteration    1(  20)  ---------------------------------------


    POTLOK:  cpu time   18.2252: real time   18.2104
    SETDIJ:  cpu time    0.0280: real time    0.0283
     EDDAV:  cpu time  192.8167: real time  192.6563
       DOS:  cpu time    0.0000: real time    0.0005
    CHARGE:  cpu time   16.3065: real time   16.2934
    MIXING:  cpu time    1.2878: real time    1.2873
    --------------------------------------------
      LOOP:  cpu time  228.6662: real time  228.4798

 eigenvalue-minimisations  :   274
 total energy-change (2. order) :-0.4452377E-03  (-0.1832168E-05)
 number of electron      57.9999980 magnetization 
 augmentation part        2.5801102 magnetization 

 Broyden mixing:
  rms(total) = 0.20134E-03    rms(broyden)= 0.20128E-03
  rms(prec ) = 0.27172E-03
  weight for this iteration     100.00

 eigenvalues of (default mixing * dielectric matrix)
  average eigenvalue GAMMA=   2.1551
  8.2766  5.2488  2.8716  2.4521  2.0757  1.7185  1.2606  1.2606  1.0397  1.0397
  1.0910  1.0910  0.9494  0.9758  0.9758

 Free energy of the ion-electron system (eV)
  ---------------------------------------------------
  alpha Z        PSCENC =         0.51957394
  Ewald energy   TEWEN  =      6057.53836240
  -Hartree energ DENC   =     -8063.36125025
  -exchange      EXHF   =         0.00000000
  -V(xc)+E(xc)   XCENC  =       213.92190001
  PAW double counting   =      4757.69090452    -4768.90437226
  entropy T*S    EENTRO =         0.00000000
  eigenvalues    EBANDS =      -752.86377695
  atomic energy  EATOM  =      2425.98333211
  Solvation  Ediel_sol  =         0.00000000
  ---------------------------------------------------
  free energy    TOTEN  =      -129.47532649 eV

  energy without entropy =     -129.47532649  energy(sigma->0) =     -129.47532649


--------------------------------------------------------------------------------------------------------




----------------------------------------- Iteration    1(  21)  ---------------------------------------


    POTLOK:  cpu time   18.2352: real time   18.2208
    SETDIJ:  cpu time    0.0280: real time    0.0283
     EDDAV:  cpu time  224.8488: real time  224.6605
       DOS:  cpu time    0.0010: real time    0.0005
    CHARGE:  cpu time   16.3545: real time   16.3411
    MIXING:  cpu time    1.3548: real time    1.3541
    --------------------------------------------
      LOOP:  cpu time  260.8243: real time  260.6094

 eigenvalue-minimisations  :   336
 total energy-change (2. order) :-0.1885365E-03  (-0.7228937E-06)
 number of electron      57.9999980 magnetization 
 augmentation part        2.5800992 magnetization 

 Broyden mixing:
  rms(total) = 0.11674E-03    rms(broyden)= 0.11668E-03
  rms(prec ) = 0.16420E-03
  weight for this iteration     100.00

 eigenvalues of (default mixing * dielectric matrix)
  average eigenvalue GAMMA=   2.2312
  8.5001  5.8356  3.4331  2.6274  2.4031  1.6791  1.6791  1.4223  1.0371  1.0371
  1.0991  1.0991  1.0316  0.9582  0.9582  0.8988

 Free energy of the ion-electron system (eV)
  ---------------------------------------------------
  alpha Z        PSCENC =         0.51957394
  Ewald energy   TEWEN  =      6057.53836240
  -Hartree energ DENC   =     -8063.36992918
  -exchange      EXHF   =         0.00000000
  -V(xc)+E(xc)   XCENC  =       213.92172384
  PAW double counting   =      4757.79032445    -4769.00380494
  entropy T*S    EENTRO =         0.00000000
  eigenvalues    EBANDS =      -752.85509764
  atomic energy  EATOM  =      2425.98333211
  Solvation  Ediel_sol  =         0.00000000
  ---------------------------------------------------
  free energy    TOTEN  =      -129.47551503 eV

  energy without entropy =     -129.47551503  energy(sigma->0) =     -129.47551503


--------------------------------------------------------------------------------------------------------




----------------------------------------- Iteration    1(  22)  ---------------------------------------


    POTLOK:  cpu time   18.1872: real time   18.1717
    SETDIJ:  cpu time    0.0280: real time    0.0283
     EDDAV:  cpu time  184.7729: real time  184.6186
       DOS:  cpu time    0.0000: real time    0.0005
    CHARGE:  cpu time   16.2645: real time   16.2503
    MIXING:  cpu time    1.4398: real time    1.4393
    --------------------------------------------
      LOOP:  cpu time  220.6934: real time  220.5113

 eigenvalue-minimisations  :   258
 total energy-change (2. order) :-0.1405898E-03  (-0.3761054E-06)
 number of electron      57.9999980 magnetization 
 augmentation part        2.5801002 magnetization 

 Broyden mixing:
  rms(total) = 0.94340E-04    rms(broyden)= 0.94313E-04
  rms(prec ) = 0.11181E-03
  weight for this iteration     100.00

 eigenvalues of (default mixing * dielectric matrix)
  average eigenvalue GAMMA=   2.2173
  8.6255  6.1389  3.7201  2.4847  2.3737  1.9287  1.6406  1.3381  1.3381  1.0400
  1.0400  1.0922  1.0922  1.0318  0.9007  0.9545  0.9545

 Free energy of the ion-electron system (eV)
  ---------------------------------------------------
  alpha Z        PSCENC =         0.51957394
  Ewald energy   TEWEN  =      6057.53836240
  -Hartree energ DENC   =     -8063.38610056
  -exchange      EXHF   =         0.00000000
  -V(xc)+E(xc)   XCENC  =       213.92146899
  PAW double counting   =      4757.68697246    -4768.90046385
  entropy T*S    EENTRO =         0.00000000
  eigenvalues    EBANDS =      -752.83880110
  atomic energy  EATOM  =      2425.98333211
  Solvation  Ediel_sol  =         0.00000000
  ---------------------------------------------------
  free energy    TOTEN  =      -129.47565562 eV

  energy without entropy =     -129.47565562  energy(sigma->0) =     -129.47565562


--------------------------------------------------------------------------------------------------------




----------------------------------------- Iteration    1(  23)  ---------------------------------------


    POTLOK:  cpu time   18.2322: real time   18.2186
    SETDIJ:  cpu time    0.0280: real time    0.0283
     EDDAV:  cpu time  241.5793: real time  241.3772
       DOS:  cpu time    0.0000: real time    0.0005
    --------------------------------------------
      LOOP:  cpu time  259.8425: real time  259.6285

 eigenvalue-minimisations  :   368
 total energy-change (2. order) :-0.3322987E-04  (-0.9359710E-07)
 number of electron      57.9999980 magnetization 
 augmentation part        2.5801002 magnetization 

 Free energy of the ion-electron system (eV)
  ---------------------------------------------------
  alpha Z        PSCENC =         0.51957394
  Ewald energy   TEWEN  =      6057.53836240
  -Hartree energ DENC   =     -8063.39330258
  -exchange      EXHF   =         0.00000000
  -V(xc)+E(xc)   XCENC  =       213.92145535
  PAW double counting   =      4757.69802404    -4768.91149421
  entropy T*S    EENTRO =         0.00000000
  eigenvalues    EBANDS =      -752.83163989
  atomic energy  EATOM  =      2425.98333211
  Solvation  Ediel_sol  =         0.00000000
  ---------------------------------------------------
  free energy    TOTEN  =      -129.47568885 eV

  energy without entropy =     -129.47568885  energy(sigma->0) =     -129.47568885


--------------------------------------------------------------------------------------------------------




 average (electrostatic) potential at core
  the test charge radii are     0.5201  0.6991  0.7089  0.7215
  (the norm of the test charge is              1.0000)
       1 -42.2191       2 -42.4761       3 -42.4621       4 -44.6747       5 -42.2028
       6 -41.9012       7 -41.7956       8 -41.9525       9 -43.6251      10 -41.7665
      11 -41.7666      12 -42.0715      13 -59.0028      14 -61.3564      15 -59.9373
      16 -58.6196      17 -60.8076      18 -59.1845      19 -74.6446      20 -74.0191
      21 -79.8365      22 -79.3637
 
 
 
 E-fermi :  -4.4736     XC(G=0):  -0.1528     alpha+bet : -0.0465


 k-point     1 :       0.2500    0.2500    0.2500
  band No.  band energies     occupation 
      1     -26.1328      2.00000
      2     -25.6254      2.00000
      3     -23.2838      2.00000
      4     -22.6499      2.00000
      5     -19.4224      2.00000
      6     -18.1611      2.00000
      7     -17.4622      2.00000
      8     -15.7691      2.00000
      9     -14.8602      2.00000
     10     -14.0561      2.00000
     11     -13.0887      2.00000
     12     -12.2247      2.00000
     13     -11.9372      2.00000
     14     -11.2862      2.00000
     15     -11.0556      2.00000
     16     -10.6911      2.00000
     17     -10.1564      2.00000
     18     -10.0905      2.00000
     19      -9.8794      2.00000
     20      -9.4981      2.00000
     21      -9.3779      2.00000
     22      -9.1142      2.00000
     23      -9.0372      2.00000
     24      -8.7998      2.00000
     25      -8.5704      2.00000
     26      -6.7348      2.00000
     27      -6.1019      2.00000
     28      -5.8815      2.00000
     29      -5.4672      2.00000
     30      -1.0333      0.00000
     31      -0.8375      0.00000
     32      -0.4925      0.00000
     33      -0.3160      0.00000
     34      -0.2046      0.00000
     35      -0.0583      0.00000
     36       0.0178      0.00000
     37       0.0991      0.00000
     38       0.1076      0.00000
     39       0.1118      0.00000
     40       0.1608      0.00000
     41       0.1990      0.00000

 k-point     2 :      -0.2500    0.2500    0.2500
  band No.  band energies     occupation 
      1     -26.1328      2.00000
      2     -25.6254      2.00000
      3     -23.2837      2.00000
      4     -22.6499      2.00000
      5     -19.4224      2.00000
      6     -18.1611      2.00000
      7     -17.4622      2.00000
      8     -15.7691      2.00000
      9     -14.8602      2.00000
     10     -14.0561      2.00000
     11     -13.0887      2.00000
     12     -12.2247      2.00000
     13     -11.9372      2.00000
     14     -11.2862      2.00000
     15     -11.0556      2.00000
     16     -10.6911      2.00000
     17     -10.1564      2.00000
     18     -10.0905      2.00000
     19      -9.8794      2.00000
     20      -9.4982      2.00000
     21      -9.3779      2.00000
     22      -9.1142      2.00000
     23      -9.0372      2.00000
     24      -8.7998      2.00000
     25      -8.5704      2.00000
     26      -6.7348      2.00000
     27      -6.1019      2.00000
     28      -5.8815      2.00000
     29      -5.4671      2.00000
     30      -1.0333      0.00000
     31      -0.8375      0.00000
     32      -0.4924      0.00000
     33      -0.3160      0.00000
     34      -0.2046      0.00000
     35      -0.0600      0.00000
     36       0.0261      0.00000
     37       0.0898      0.00000
     38       0.1004      0.00000
     39       0.1175      0.00000
     40       0.1601      0.00000
     41       0.1707      0.00000

 k-point     3 :       0.2500   -0.2500    0.2500
  band No.  band energies     occupation 
      1     -26.1328      2.00000
      2     -25.6254      2.00000
      3     -23.2837      2.00000
      4     -22.6499      2.00000
      5     -19.4224      2.00000
      6     -18.1611      2.00000
      7     -17.4622      2.00000
      8     -15.7691      2.00000
      9     -14.8602      2.00000
[...]

 Free energy of the ion-electron system (eV)
  ---------------------------------------------------
  alpha Z        PSCENC =         0.51957394
  Ewald energy   TEWEN  =      6079.67626026
  -Hartree energ DENC   =     -8083.43403035
  -exchange      EXHF   =         0.00000000
  -V(xc)+E(xc)   XCENC  =       214.08544978
  PAW double counting   =      4785.59427786    -4796.81163232
  entropy T*S    EENTRO =         0.00000000
  eigenvalues    EBANDS =      -755.14457241
  atomic energy  EATOM  =      2425.98333211
  Solvation  Ediel_sol  =         0.00000000
  ---------------------------------------------------
  free energy    TOTEN  =      -129.53134113 eV

  energy without entropy =     -129.53134113  energy(sigma->0) =     -129.53134113


--------------------------------------------------------------------------------------------------------




 average (electrostatic) potential at core
  the test charge radii are     0.5201  0.6991  0.7089  0.7215
  (the norm of the test charge is              1.0000)
       1 -42.2659       2 -42.5179       3 -42.4964       4 -44.7085       5 -42.2490
       6 -41.8979       7 -41.8012       8 -41.9645       9 -43.6403      10 -41.8217
      11 -41.8138      12 -42.1038      13 -59.0363      14 -61.3846      15 -59.8999
      16 -58.6032      17 -60.8018      18 -59.2074      19 -74.6899      20 -74.0566
      21 -79.8633      22 -79.3848
 
 
 
 E-fermi :  -4.5731     XC(G=0):  -0.1299     alpha+bet : -0.0465


 k-point     1 :       0.2500    0.2500    0.2500
  band No.  band energies     occupation 
      1     -26.1278      2.00000
      2     -25.6069      2.00000
      3     -23.3680      2.00000
      4     -22.7670      2.00000
      5     -19.5430      2.00000
      6     -18.2067      2.00000
      7     -17.5652      2.00000
      8     -15.7557      2.00000
      9     -14.9013      2.00000
     10     -14.1001      2.00000
     11     -13.1426      2.00000
     12     -12.2065      2.00000
     13     -11.9917      2.00000
     14     -11.3488      2.00000
     15     -11.1006      2.00000
     16     -10.7414      2.00000
     17     -10.2106      2.00000
     18     -10.1221      2.00000
     19      -9.9052      2.00000
     20      -9.5617      2.00000
     21      -9.3859      2.00000
     22      -9.1422      2.00000
     23      -9.0435      2.00000
     24      -8.8250      2.00000
     25      -8.5731      2.00000
     26      -6.7668      2.00000
     27      -6.1424      2.00000
     28      -5.9291      2.00000
     29      -5.4914      2.00000
     30      -1.0776      0.00000
     31      -0.8571      0.00000
     32      -0.4990      0.00000
     33      -0.3248      0.00000
     34      -0.1993      0.00000
     35      -0.0594      0.00000
     36       0.0427      0.00000
     37       0.1240      0.00000
     38       0.1310      0.00000
     39       0.1383      0.00000
     40       0.1812      0.00000
     41       0.1977      0.00000

 k-point     2 :      -0.2500    0.2500    0.2500
  band No.  band energies     occupation 
      1     -26.1278      2.00000
      2     -25.6069      2.00000
      3     -23.3680      2.00000
      4     -22.7670      2.00000
      5     -19.5430      2.00000
      6     -18.2067      2.00000
      7     -17.5652      2.00000
      8     -15.7557      2.00000
      9     -14.9013      2.00000
     10     -14.1001      2.00000
     11     -13.1426      2.00000
     12     -12.2065      2.00000
     13     -11.9917      2.00000
     14     -11.3488      2.00000
     15     -11.1006      2.00000
     16     -10.7414      2.00000
     17     -10.2106      2.00000
     18     -10.1221      2.00000
     19      -9.9052      2.00000
     20      -9.5617      2.00000
     21      -9.3860      2.00000
     22      -9.1422      2.00000
     23      -9.0435      2.00000
     24      -8.8250      2.00000
     25      -8.5731      2.00000
     26      -6.7668      2.00000
     27      -6.1424      2.00000
     28      -5.9291      2.00000
     29      -5.4914      2.00000
     30      -1.0776      0.00000
     31      -0.8571      0.00000
     32      -0.4990      0.00000
     33      -0.3248      0.00000
     34      -0.1993      0.00000
     35      -0.0603      0.00000
     36       0.0499      0.00000
     37       0.1141      0.00000
     38       0.1246      0.00000
     39       0.1428      0.00000
     40       0.1812      0.00000
     41       0.1940      0.00000

 k-point     3 :       0.2500   -0.2500    0.2500
  band No.  band energies     occupation 
      1     -26.1278      2.00000
      2     -25.6069      2.00000
      3     -23.3680      2.00000
      4     -22.7670      2.00000
      5     -19.5430      2.00000
      6     -18.2067      2.00000
      7     -17.5652      2.00000
      8     -15.7557      2.00000
      9     -14.9013      2.00000
     10     -14.1001      2.00000
     11     -13.1426      2.00000
     12     -12.2065      2.00000
     13     -11.9917      2.00000
     14     -11.3488      2.00000
     15     -11.1006      2.00000
     16     -10.7414      2.00000
     17     -10.2106      2.00000
     18     -10.1221      2.00000
     19      -9.9052      2.00000
     20      -9.5617      2.00000
     21      -9.3860      2.00000
     22      -9.1422      2.00000
     23      -9.0435      2.00000
     24      -8.8250      2.00000
     25      -8.5732      2.00000
     26      -6.7668      2.00000
     27      -6.1424      2.00000
     28      -5.9291      2.00000
     29      -5.4914      2.00000
     30      -1.0776      0.00000
     31      -0.8571      0.00000
     32      -0.4990      0.00000
     33      -0.3248      0.00000
     34      -0.1994      0.00000
     35      -0.0592      0.00000
     36       0.0473      0.00000
     37       0.1092      0.00000
     38       0.1328      0.00000
     39       0.1405      0.00000
     40       0.1780      0.00000
     41       0.1991      0.00000

 k-point     4 :      -0.2500   -0.2500    0.2500
  band No.  band energies     occupation 
      1     -26.1278      2.00000
      2     -25.6069      2.00000
      3     -23.3680      2.00000
      4     -22.7670      2.00000
      5     -19.5430      2.00000
      6     -18.2067      2.00000
      7     -17.5652      2.00000
      8     -15.7557      2.00000
      9     -14.9013      2.00000
     10     -14.1001      2.00000
     11     -13.1426      2.00000
     12     -12.2065      2.00000
     13     -11.9917      2.00000
     14     -11.3488      2.00000
     15     -11.1006      2.00000
     16     -10.7414      2.00000
     17     -10.2106      2.00000
     18     -10.1221      2.00000
     19      -9.9052      2.00000
     20      -9.5617      2.00000
     21      -9.3859      2.00000
     22      -9.1422      2.00000
     23      -9.0435      2.00000
     24      -8.8250      2.00000
     25      -8.5731      2.00000
     26      -6.7668      2.00000
     27      -6.1424      2.00000
     28      -5.9291      2.00000
     29      -5.4914      2.00000
     30      -1.0776      0.00000
     31      -0.8571      0.00000
     32      -0.4990      0.00000
     33      -0.3248      0.00000
     34      -0.1993      0.00000
     35      -0.0598      0.00000
     36       0.0484      0.00000
     37       0.1152      0.00000
     38       0.1305      0.00000
     39       0.1340      0.00000
     40       0.1847      0.00000
     41       0.1980      0.00000


--------------------------------------------------------------------------------------------------------


 soft charge-density along one line, spin component           1
         0         1         2         3         4         5         6         7         8         9
 total charge-density along one line
 
 pseudopotential strength for first ion, spin component:           1
 -2.351  -4.054   0.002   0.000  -0.001
 -4.054  -6.903   0.005   0.000  -0.002
  0.002   0.005  -0.332   0.000  -0.002
  0.000   0.000   0.000  -0.336   0.000
 -0.001  -0.002  -0.002   0.000  -0.336
 total augmentation occupancy for first ion, spin component:           1
  3.531  -0.636  -0.414   0.032   0.153
 -0.636   0.129   0.076  -0.006  -0.028
 -0.414   0.076   0.050  -0.003  -0.016
  0.032  -0.006  -0.003   0.009   0.001
  0.153  -0.028  -0.016   0.001   0.013


------------------------ aborting loop because EDIFF is reached ----------------------------------------


    CHARGE:  cpu time   16.3105: real time   16.2969
    FORLOC:  cpu time    5.8031: real time    5.7993
    FORNL :  cpu time   59.9389: real time   59.8874
    STRESS:  cpu time  181.2175: real time  181.0660
    FORCOR:  cpu time   23.5264: real time   23.5061
    FORHAR:  cpu time   10.4164: real time   10.4084
    MIXING:  cpu time    0.7389: real time    0.7379
    OFIELD:  cpu time    0.0000: real time    0.0000

  FORCE on cell =-STRESS in cart. coord.  units (eV):
  Direction    XX          YY          ZZ          XY          YZ          ZX
  --------------------------------------------------------------------------------------
  Alpha Z     0.51957     0.51957     0.51957
  Ewald    2486.75110  2466.41964  1126.50428  -281.76374  -248.00491  -944.27249
  Hartree  3137.61726  2916.92157  2028.87744  -250.10946  -277.11288  -781.60912
  E(xc)    -230.53772  -229.24519  -231.31459    -0.11772     0.50032    -0.63801
  Local   -6242.37346 -5962.45535 -3781.52268   533.69987   550.88233  1716.27207
  n-local  -131.92954  -135.10819  -132.86715     0.08413    -2.26477     0.52470
  augment    14.84285    13.95936    14.56229    -0.30613    -1.03513     0.05003
  Kinetic   961.22952   925.61133   971.42775    -1.44759   -22.87360     9.62732
  Fock        0.00000     0.00000     0.00000     0.00000     0.00000     0.00000
  -------------------------------------------------------------------------------------
  Total      -3.88041    -3.37726    -3.81309     0.03937     0.09136    -0.04551
  in kB      -0.23026    -0.20041    -0.22627     0.00234     0.00542    -0.00270
  external pressure =       -0.22 kB  Pullay stress =        0.00 kB


 VOLUME and BASIS-vectors are now :
 -----------------------------------------------------------------------------
  energy-cutoff  :      400.00
  volume of cell :    27000.00
      direct lattice vectors                 reciprocal lattice vectors
    30.000000000  0.000000000  0.000000000     0.033333333  0.000000000  0.000000000
     0.000000000 30.000000000  0.000000000     0.000000000  0.033333333  0.000000000
     0.000000000  0.000000000 30.000000000     0.000000000  0.000000000  0.033333333

  length of vectors
    30.000000000 30.000000000 30.000000000     0.033333333  0.033333333  0.033333333


 FORCES acting on ions
    electron-ion (+dipol)            ewald-force                    non-local-force                 convergence-correction
 -----------------------------------------------------------------------------------------------
   0.593E+02 -.627E+02 0.601E+01   -.613E+02 0.680E+02 -.643E+01   0.197E+01 -.530E+01 0.411E+00   0.920E-04 -.122E-03 -.158E-03
   0.558E+02 0.295E+02 0.550E+02   -.573E+02 -.323E+02 -.595E+02   0.151E+01 0.278E+01 0.448E+01   0.195E-03 -.219E-04 -.390E-04
   0.627E+02 0.254E+02 -.534E+02   -.651E+02 -.277E+02 0.577E+02   0.240E+01 0.234E+01 -.433E+01   0.115E-03 -.119E-03 -.192E-03
   0.641E+02 0.907E+02 0.271E+02   -.678E+02 -.967E+02 -.294E+02   0.367E+01 0.599E+01 0.231E+01   -.279E-04 0.106E-03 -.141E-03
   -.370E+02 -.316E+02 -.859E+02   0.384E+02 0.351E+02 0.901E+02   -.132E+01 -.355E+01 -.425E+01   -.147E-03 0.446E-04 -.293E-04
   -.749E+02 0.358E+02 -.340E+02   0.803E+02 -.362E+02 0.350E+02   -.546E+01 0.336E+00 -.995E+00   -.194E-03 -.670E-05 0.944E-04
   0.419E+01 0.822E+02 0.323E+02   -.505E+01 -.857E+02 -.366E+02   0.845E+00 0.345E+01 0.427E+01   -.353E-03 0.774E-04 0.100E-03
   0.198E+02 0.522E+02 -.698E+02   -.225E+02 -.540E+02 0.742E+02   0.268E+01 0.175E+01 -.448E+01   -.166E-03 0.261E-04 -.191E-03
   0.159E+02 -.804E+02 -.368E+02   -.202E+02 0.843E+02 0.413E+02   0.425E+01 -.388E+01 -.452E+01   -.121E-03 -.544E-04 -.401E-04
   -.804E+02 -.192E-01 0.352E+02   0.855E+02 -.238E+01 -.361E+02   -.505E+01 0.241E+01 0.943E+00   -.755E-04 0.159E-03 0.949E-05
   0.199E+02 -.163E+02 0.820E+02   -.228E+02 0.156E+02 -.867E+02   0.294E+01 0.694E+00 0.463E+01   -.234E-03 0.113E-03 -.285E-04
   -.246E+02 -.837E+02 0.991E+01   0.253E+02 0.892E+02 -.899E+01   -.712E+00 -.552E+01 -.917E+00   -.151E-03 -.250E-05 -.347E-04
   0.226E+03 -.118E+02 0.602E+01   -.227E+03 0.128E+02 -.619E+01   0.811E+00 -.974E+00 0.176E+00   0.752E-03 -.105E-02 -.106E-02
   0.182E+03 -.389E+01 -.198E+02   -.187E+03 0.435E+01 0.191E+02   0.498E+01 -.448E+00 0.651E+00   -.162E-03 -.798E-03 -.105E-02
   -.694E+02 0.576E+02 -.124E+03   0.752E+02 -.580E+02 0.125E+03   -.576E+01 0.434E+00 -.113E+01   -.109E-02 -.304E-05 -.146E-03
   -.620E+02 0.205E+03 -.107E+03   0.624E+02 -.206E+03 0.107E+03   -.384E+00 0.116E+01 0.594E-01   -.233E-02 -.415E-03 -.765E-04
   -.493E+02 0.136E+02 -.141E+02   0.469E+02 -.154E+02 0.176E+02   0.238E+01 0.173E+01 -.357E+01   -.368E-03 0.577E-03 0.732E-03
   -.108E+03 -.148E+03 0.160E+03   0.110E+03 0.150E+03 -.165E+03   -.250E+01 -.175E+01 0.442E+01   -.105E-02 0.121E-02 0.276E-03
   0.141E+03 0.176E+03 -.144E+02   -.139E+03 -.177E+03 0.162E+02   -.182E+01 0.965E+00 -.183E+01   -.216E-03 0.967E-03 -.157E-02
   -.819E+02 -.208E+03 0.110E+02   0.850E+02 0.211E+03 -.794E+01   -.304E+01 -.305E+01 -.310E+01   -.625E-03 0.217E-03 0.495E-03
   0.320E+01 -.381E+03 -.169E+03   0.184E+02 0.427E+03 0.182E+03   -.216E+02 -.452E+02 -.132E+02   0.312E-03 0.306E-03 -.433E-03
   -.225E+03 0.271E+03 0.289E+03   0.247E+03 -.305E+03 -.323E+03   -.223E+02 0.345E+02 0.339E+02   0.293E-02 -.898E-04 0.171E-02
 -----------------------------------------------------------------------------------------------
   0.415E+02 0.111E+02 -.140E+02   -.142E-12 0.000E+00 0.568E-13   -.415E+02 -.111E+02 0.140E+02   -.292E-02 0.113E-02 -.177E-02
 
 
 POSITION                                       TOTAL-FORCE (eV/Angst)
 -----------------------------------------------------------------------------------
     11.50917     16.51063     15.42208        -0.000960     -0.005685     -0.005625
     11.60642     14.91715     14.60984         0.005203     -0.011756      0.007576
     11.42191     15.00777     16.37709         0.008913      0.002321      0.006054
     13.55552     13.55007     15.19490         0.007219      0.005903     -0.008124
     15.76787     14.93474     16.52498         0.004461     -0.002874     -0.000608
     16.97461     12.76938     16.26749        -0.008831     -0.014940      0.000756
     15.70084     12.13867     15.22245        -0.016457     -0.000726      0.001370
     15.35225     12.48368     16.95438        -0.012281      0.004959      0.000937
     15.71609     16.61818     14.91977        -0.001226     -0.002992     -0.000748
     17.92071     16.22961     12.96364        -0.005353      0.005546     -0.008462
     16.34126     16.55508     12.21869        -0.008471      0.007433      0.002239
     17.06446     17.75984     13.33038        -0.005315      0.002451      0.001409
     11.89282     15.48808     15.50564         0.003628     -0.002019      0.001382
     13.39646     15.54613     15.68480         0.007150      0.009604      0.000861
     15.51319     14.24738     15.70198         0.003424      0.002374     -0.000081
     15.89722     12.82138     16.06158        -0.005673     -0.003923      0.000255
     16.27194     14.72016     14.43224         0.017973     -0.016204     -0.010775
     16.93706     16.68752     13.13713        -0.003586      0.001943     -0.002550
     14.06462     14.37089     15.51333         0.005537      0.003833     -0.004947
     16.30963     16.06840     14.28937         0.000398      0.003277      0.001093
     13.98827     16.59765     15.98862        -0.001965      0.000745     -0.000625
     16.79627     13.92877     13.63800         0.006212      0.010731      0.018613
 -----------------------------------------------------------------------------------
    total drift:                                0.008930      0.005439     -0.003664


--------------------------------------------------------------------------------------------------------



  FREE ENERGIE OF THE ION-ELECTRON SYSTEM (eV)
  ---------------------------------------------------
  free  energy   TOTEN  =      -129.53134113 eV

  energy  without entropy=     -129.53134113  energy(sigma->0) =     -129.53134113
 
 d Force = 0.4349454E-03[ 0.405E-03, 0.465E-03]  d Energy = 0.4361444E-03-0.120E-05
 d Force = 0.2465772E+00[ 0.250E+00, 0.243E+00]  d Ewald  = 0.2465775E+00-0.339E-06


--------------------------------------------------------------------------------------------------------


    POTLOK:  cpu time   19.9790: real time   19.9612


--------------------------------------------------------------------------------------------------------


 NEB: the previous image is higher in energy: F
 NEB: the next image is higher in energy    : F
 NEB: image is at an extrema
 NEB: diff energy (min, max):     0.005902  129.531341

 NEB: Tangent
 ----------------------------------------------
      0.01515     -0.00685     -0.28836
      0.05899     -0.02563     -0.24994
     -0.13479      0.01450     -0.25864
     -0.00971     -0.02404     -0.20611
     -0.08588     -0.12196      0.08143
     -0.06138     -0.08496      0.01370
      0.03225     -0.03156     -0.15266
     -0.12113     -0.17917     -0.13821
     -0.02678     -0.00385      0.17355
      0.08564      0.14817      0.25314
      0.12056      0.19718      0.19463
      0.06646      0.12451      0.32066
     -0.02055     -0.01853     -0.22503
     -0.02838     -0.05510     -0.05586
     -0.03474     -0.06433      0.01029
     -0.04965     -0.09248     -0.07266
      0.04371      0.03503      0.08306
      0.07650      0.13464      0.23749
     -0.02649     -0.05156     -0.07515
      0.02002      0.04765      0.16717
     -0.03632     -0.07973      0.08802
      0.11550      0.09535      0.06328

 NEB: forces: par spring, perp REAL, dneb     0.011565    0.056486    0.000000
 NEB: distance to prev, next image, angle between     1.144135    1.146448  148.242263
 NEB: projections on to tangent (spring, REAL)     0.011565    0.001182

 stress matrix after NEB project (eV)
     -3.88041      0.03937     -0.04551
      0.03937     -3.37726      0.09136
     -0.04551      0.09136     -3.81309
  FORCES: max atom, RMS     0.026243    0.012293
  FORCE total and by dimension    0.057658    0.019270
  Stress total and by dimension    6.405234    3.880411
 OPT: skip step - force has converged


--------------------------------------------------------------------------------------------------------


  
 reached required accuracy - stopping structural energy minimisation
     LOOP+:  cpu time 1817.8007: real time 1816.3203
    4ORBIT:  cpu time    0.0000: real time    0.0000

 total amount of memory used by VASP on root node  4333712. kBytes
========================================================================

   base      :      30000. kBytes
   nonlr-proj:       2407. kBytes
   fftplans  :     924480. kBytes
   grid      :    2089440. kBytes
   one-center:         67. kBytes
   wavefun   :    1287318. kBytes
 
  
  
 General timing and accounting informations for this job:
 ========================================================
  
                  Total CPU time used (sec):   123693.641
                            User time (sec):   122925.178
                          System time (sec):      768.462
                         Elapsed time (sec):   123693.252
  
                   Maximum memory used (kb):     5899544.
                   Average memory used (kb):           0.
  
                          Minor page faults:    182367700
                          Major page faults:            9
                 Voluntary context switches:         7996
