unknown system                          
           1
    30.000000    0.000000    0.000000
     0.000000   30.000000    0.000000
     0.000000    0.000000   30.000000
   H    C    N    O 
  12   6   2   2
Direct configuration=     1
   0.38419867  0.55122719  0.51557404
   0.38500628  0.49883497  0.48723859
   0.37993613  0.50093602  0.54634323
   0.45140909  0.45021458  0.50786779
   0.52476815  0.49639243  0.55219437
   0.56661487  0.42588603  0.54282960
   0.52523868  0.40252666  0.50895785
   0.51333677  0.41593387  0.56604132
   0.52449511  0.55643562  0.49652316
   0.59750648  0.53987547  0.43189050
   0.54548432  0.55128346  0.40577093
   0.56976876  0.59211455  0.44149024
   0.39594966  0.51669622  0.51734667
   0.44625038  0.51730435  0.52275644
   0.51685173  0.47457157  0.52364700
   0.53076470  0.42699150  0.53569988
   0.54134852  0.49203619  0.48092111
   0.56496810  0.55615515  0.43657394
   0.46827493  0.47782572  0.51801494
   0.54298319  0.53701145  0.47542522
   0.46662444  0.55225364  0.53199215
   0.55817751  0.46600122  0.45362840
Direct configuration=     2
   0.38422495  0.55123602  0.51551007
   0.38505187  0.49880347  0.48720572
   0.37993497  0.50089735  0.54630735
   0.45141015  0.45020929  0.50782740
   0.52479243  0.49643467  0.55210511
   0.56665721  0.42593347  0.54282716
   0.52516054  0.40262897  0.50887062
   0.51328309  0.41593483  0.56598704
   0.52445948  0.55640447  0.49656680
   0.59748546  0.53993464  0.43191393
   0.54550745  0.55127707  0.40581722
   0.56978118  0.59210058  0.44159937
   0.39594892  0.51669323  0.51732135
   0.44622836  0.51728791  0.52275374
   0.51684621  0.47455153  0.52362251
   0.53078686  0.42699525  0.53568847
   0.54133931  0.49200616  0.48096177
   0.56493636  0.55615539  0.43665746
   0.46827862  0.47784361  0.51797508
   0.54301087  0.53696600  0.47550720
   0.46660712  0.55230658  0.53203891
   0.55822490  0.46590056  0.45365734
Direct configuration=     3
   0.38426196  0.55124499  0.51542292
   0.38511774  0.49875926  0.48716420
   0.37993561  0.50084443  0.54625694
   0.45141907  0.45021543  0.50777551
   0.52482708  0.49649832  0.55197739
   0.56670807  0.42599995  0.54281940
   0.52505345  0.40277795  0.50875043
   0.51321030  0.41593892  0.56591066
   0.52441080  0.55634839  0.49662462
   0.59745617  0.54001428  0.43194671
   0.54553354  0.55126584  0.40588755
   0.56979236  0.59208026  0.44175621
   0.39594625  0.51668246  0.51728585
   0.44624702  0.51735016  0.52277193
   0.51684311  0.47453906  0.52359508
   0.53081273  0.42700416  0.53566773
   0.54137489  0.49188219  0.48094607
   0.56489911  0.55615090  0.43676740
   0.46827383  0.47784896  0.51791343
   0.54304306  0.53691445  0.47562363
   0.46653994  0.55230774  0.53208522
   0.55824999  0.46582368  0.45376487
Direct configuration=     4
   0.38430491  0.55124777  0.51531883
   0.38520625  0.49870218  0.48711952
   0.37994219  0.50078010  0.54619552
   0.45143111  0.45023440  0.50771325
   0.52487509  0.49659258  0.55181418
   0.56675575  0.42608222  0.54280125
   0.52492307  0.40297438  0.50860199
   0.51312484  0.41594885  0.56581359
   0.52434948  0.55625482  0.49669404
   0.59742419  0.54010621  0.43198681
   0.54555285  0.55124787  0.40598353
   0.56979527  0.59205183  0.44195741
   0.39595000  0.51666715  0.51724513
   0.44626761  0.51741810  0.52279210
   0.51684127  0.47453215  0.52356070
   0.53083467  0.42702855  0.53564009
   0.54141460  0.49173977  0.48094082
   0.56485697  0.55614408  0.43689817
   0.46827280  0.47786567  0.51783925
   0.54308588  0.53683630  0.47575656
   0.46645746  0.55231051  0.53214575
   0.55828957  0.46571535  0.45388594
Direct configuration=     5
   0.38434604  0.55123900  0.51520953
   0.38531343  0.49863531  0.48707777
   0.37995730  0.50071101  0.54613053
   0.45144016  0.45026447  0.50764446
   0.52493541  0.49671961  0.55163057
   0.56678726  0.42617151  0.54276928
   0.52478327  0.40320510  0.50843827
   0.51303696  0.41596572  0.56570437
   0.52428039  0.55611872  0.49676796
   0.59739732  0.54019725  0.43203011
   0.54555535  0.55122364  0.40609979
   0.56978330  0.59201633  0.44218716
   0.39596723  0.51665125  0.51720477
   0.44624436  0.51740814  0.52279229
   0.51683789  0.47452881  0.52351810
   0.53084445  0.42707481  0.53560895
   0.54141902  0.49165875  0.48100649
   0.56481341  0.55613494  0.43703944
   0.46828903  0.47791529  0.51776614
   0.54314164  0.53672162  0.47588227
   0.46640569  0.55237792  0.53223412
   0.55837662  0.46553030  0.45395247
Direct configuration=     6
   0.38438060  0.55121218  0.51510732
   0.38543895  0.49855780  0.48704791
   0.37998665  0.50064101  0.54607062
   0.45145236  0.45031961  0.50757799
   0.52500899  0.49688881  0.55143250
   0.56678867  0.42626419  0.54271599
   0.52464284  0.40346995  0.50826814
   0.51295344  0.41599559  0.56559128
   0.52420813  0.55592245  0.49683701
   0.59737971  0.54027491  0.43207079
   0.54552636  0.55118930  0.40623665
   0.56974391  0.59197213  0.44243865
   0.39599770  0.51662876  0.51717063
   0.44621339  0.51738544  0.52279069
   0.51683565  0.47454962  0.52347613
   0.53083255  0.42714933  0.53556984
   0.54143618  0.49156743  0.48106734
   0.56477592  0.55611336  0.43717741
   0.46831902  0.47798449  0.51769449
   0.54320262  0.53658537  0.47599094
   0.46636042  0.55245924  0.53233361
   0.55847127  0.46532828  0.45402020
Direct configuration=     7
   0.38440739  0.55116285  0.51501556
   0.38558764  0.49846331  0.48703309
   0.38003489  0.50056803  0.54602057
   0.45147734  0.45041426  0.50751764
   0.52509862  0.49711484  0.55121489
   0.56675353  0.42636327  0.54263362
   0.52449894  0.40378098  0.50808644
   0.51287184  0.41604437  0.56547666
   0.52412995  0.55564784  0.49690053
   0.59737209  0.54033529  0.43210611
   0.54545516  0.55114125  0.40640041
   0.56966593  0.59191478  0.44271945
   0.39603643  0.51659023  0.51714379
   0.44623763  0.51746077  0.52281889
   0.51683999  0.47461474  0.52344382
   0.53079281  0.42725618  0.53552050
   0.54152035  0.49137854  0.48103907
   0.56474732  0.55607112  0.43730817
   0.46835121  0.47805343  0.51761568
   0.54326493  0.53643681  0.47608538
   0.46627468  0.55247525  0.53242314
   0.55853641  0.46516249  0.45415546
Direct configuration=     8
   0.38441173  0.55108139  0.51495222
   0.38576109  0.49834413  0.48704124
   0.38011123  0.50049423  0.54600079
   0.45151084  0.45054776  0.50746715
   0.52520775  0.49742095  0.55099037
   0.56666906  0.42646340  0.54251111
   0.52435787  0.40413455  0.50789709
   0.51279682  0.41612091  0.56537599
   0.52404271  0.55527866  0.49695439
   0.59738263  0.54036082  0.43212438
   0.54532105  0.55107715  0.40658575
   0.56953128  0.59183570  0.44301306
   0.39608931  0.51653738  0.51713630
   0.44627349  0.51754831  0.52285695
   0.51685420  0.47472652  0.52341556
   0.53071372  0.42740664  0.53547264
   0.54160833  0.49120718  0.48101303
   0.56472461  0.55600851  0.43742066
   0.46839958  0.47816359  0.51754519
   0.54334113  0.53624302  0.47613365
   0.46620754  0.55251380  0.53252273
   0.55863902  0.46493149  0.45424479
Direct configuration=     9
   0.38437976  0.55096887  0.51492581
   0.38595341  0.49819584  0.48707085
   0.38021588  0.50041938  0.54602695
   0.45154900  0.45070848  0.50742631
   0.52532992  0.49780263  0.55077609
   0.56654500  0.42655730  0.54235087
   0.52422131  0.40451237  0.50770546
   0.51272372  0.41622518  0.56530676
   0.52395047  0.55482925  0.49699299
   0.59740598  0.54034892  0.43211738
   0.54512670  0.55100319  0.40677895
   0.56933899  0.59173400  0.44329610
   0.39616112  0.51647921  0.51715606
   0.44625413  0.51753953  0.52287533
   0.51687973  0.47487210  0.52338473
   0.53059997  0.42759314  0.53543625
   0.54167372  0.49108763  0.48101953
   0.56470557  0.55592769  0.43750094
   0.46847561  0.47834499  0.51749558
   0.54343168  0.53600171  0.47613323
   0.46623098  0.55268863  0.53265686
   0.55880238  0.46460689  0.45424270
Direct configuration=    10
   0.38431332  0.55082787  0.51490682
   0.38616022  0.49800310  0.48711378
   0.38032555  0.50034548  0.54609031
   0.45162491  0.45090329  0.50740889
   0.52545073  0.49823465  0.55057190
   0.56641899  0.42666031  0.54219069
   0.52411662  0.40489676  0.50753439
   0.51264971  0.41635718  0.56529021
   0.52385593  0.55433634  0.49701096
   0.59741744  0.54031660  0.43207658
   0.54488712  0.55093442  0.40695864
   0.56909575  0.59162373  0.44354764
   0.39622167  0.51639036  0.51718538
   0.44636020  0.51777684  0.52297769
   0.51693021  0.47507028  0.52338184
   0.53047363  0.42779136  0.53541721
   0.54185264  0.49077115  0.48082673
   0.56468308  0.55582411  0.43753357
   0.46853979  0.47849273  0.51744914
   0.54350775  0.53577385  0.47611112
   0.46618600  0.55272070  0.53275476
   0.55888282  0.46439770  0.45433580
Direct configuration=    11
   0.38430375  0.55082379  0.51490610
   0.38616365  0.49799690  0.48711507
   0.38032706  0.50034491  0.54609468
   0.45162587  0.45090220  0.50740762
   0.52544904  0.49823672  0.55057331
   0.56642118  0.42665803  0.54219172
   0.52411701  0.40489490  0.50753676
   0.51264684  0.41635876  0.56529594
   0.52385585  0.55433447  0.49700924
   0.59741479  0.54031703  0.43207195
   0.54488499  0.55093859  0.40695347
   0.56909200  0.59162290  0.44354108
   0.39622279  0.51639227  0.51718837
   0.44633887  0.51773955  0.52296788
   0.51693148  0.47506483  0.52337935
   0.53047477  0.42778997  0.53542400
   0.54182595  0.49081564  0.48086748
   0.56467730  0.55582604  0.43753226
   0.46854739  0.47851170  0.51745464
   0.54351248  0.53575968  0.47610539
   0.46621052  0.55276211  0.53276610
   0.55891040  0.46435790  0.45429141
Direct configuration=    12
   0.38428336  0.55081592  0.51490416
   0.38617078  0.49798465  0.48711718
   0.38033016  0.50034368  0.54610267
   0.45163100  0.45090463  0.50740483
   0.52544389  0.49823853  0.55057697
   0.56642461  0.42665150  0.54219249
   0.52411659  0.40489102  0.50754070
   0.51263918  0.41636092  0.56530698
   0.52385664  0.55432964  0.49700604
   0.59740914  0.54031893  0.43206412
   0.54488142  0.55094854  0.40694466
   0.56908420  0.59162225  0.44353026
   0.39622365  0.51639437  0.51719300
   0.44631370  0.51769863  0.52295688
   0.51693496  0.47505721  0.52337720
   0.53047557  0.42778533  0.53543531
   0.54179614  0.49086588  0.48091536
   0.56466759  0.55582846  0.43752978
   0.46855895  0.47854136  0.51746197
   0.54351926  0.53573883  0.47609783
   0.46624520  0.55281994  0.53278112
   0.55894784  0.46430882  0.45423397
Direct configuration=    13
   0.38428136  0.55081532  0.51490383
   0.38617147  0.49798376  0.48711728
   0.38033046  0.50034355  0.54610301
   0.45163252  0.45090648  0.50740456
   0.52544297  0.49823791  0.55057754
   0.56642452  0.42665030  0.54219215
   0.52411617  0.40489066  0.50754080
   0.51263799  0.41636075  0.56530766
   0.52385703  0.55432888  0.49700585
   0.59740856  0.54031945  0.43206394
   0.54488137  0.55094984  0.40694447
   0.56908348  0.59162253  0.44353020
   0.39622320  0.51639392  0.51719286
   0.44631767  0.51770694  0.52295897
   0.51693554  0.47505778  0.52337804
   0.53047511  0.42778429  0.53543546
   0.54180161  0.49085711  0.48090809
   0.56466753  0.55582818  0.43752962
   0.46855848  0.47854058  0.51746126
   0.54351883  0.53574000  0.47609855
   0.46624297  0.55281599  0.53277967
   0.55894499  0.46431483  0.45423969
Direct configuration=    14
   0.38427731  0.55081424  0.51490299
   0.38617288  0.49798229  0.48711700
   0.38033103  0.50034329  0.54610322
   0.45163537  0.45091020  0.50740343
   0.52544088  0.49823618  0.55057892
   0.56642394  0.42664732  0.54219101
   0.52411485  0.40488985  0.50754039
   0.51263517  0.41635986  0.56530848
   0.52385777  0.55432731  0.49700593
   0.59740778  0.54032075  0.43206430
   0.54488169  0.55095283  0.40694466
   0.56908233  0.59162329  0.44353090
   0.39622237  0.51639325  0.51719225
   0.44632499  0.51772241  0.52296254
   0.51693654  0.47505855  0.52337957
   0.53047379  0.42778192  0.53543543
   0.54181196  0.49084110  0.48089517
   0.56466767  0.55582796  0.43753003
   0.46855763  0.47853941  0.51745959
   0.54351831  0.53574209  0.47610036
   0.46623906  0.55280902  0.53277697
   0.55894055  0.46432589  0.45425036
Direct configuration=    15
   0.38427103  0.55081284  0.51490140
   0.38617510  0.49798066  0.48711572
   0.38033188  0.50034287  0.54610269
   0.45163924  0.45091585  0.50740055
   0.52543724  0.49823266  0.55058149
   0.56642228  0.42664166  0.54218841
   0.52411194  0.40488845  0.50753858
   0.51263007  0.41635750  0.56530865
   0.52385880  0.55432483  0.49700697
   0.59740732  0.54032323  0.43206625
   0.54488302  0.55095815  0.40694605
   0.56908117  0.59162481  0.44353357
   0.39622126  0.51639273  0.51719075
   0.44633440  0.51774282  0.52296657
   0.51693771  0.47505887  0.52338147
   0.53047104  0.42777778  0.53543474
   0.54182584  0.49082081  0.48087964
   0.56466834  0.55582830  0.43753210
   0.46855665  0.47853873  0.51745666
   0.54351824  0.53574442  0.47610372
   0.46623456  0.55280095  0.53277351
   0.55893683  0.46434002  0.45426423
Direct configuration=    16
   0.38426241  0.55081133  0.51489875
   0.38617823  0.49797938  0.48711267
   0.38033295  0.50034227  0.54610064
   0.45164362  0.45092331  0.50739488
   0.52543172  0.49822659  0.55058562
   0.56641884  0.42663231  0.54218359
   0.52410660  0.40488630  0.50753430
   0.51262195  0.41635275  0.56530717
   0.52385998  0.55432136  0.49700978
   0.59740789  0.54032733  0.43207102
   0.54488607  0.55096647  0.40694957
   0.56908049  0.59162743  0.44353960
   0.39622013  0.51639286  0.51718789
   0.44634398  0.51776454  0.52296959
   0.51693869  0.47505789  0.52338329
   0.53046619  0.42777146  0.53543285
   0.54184103  0.49080090  0.48086603
   0.56466988  0.55582987  0.43753711
   0.46855594  0.47853975  0.51745221
   0.54351933  0.53574602  0.47610904
   0.46623111  0.55279470  0.53277014
   0.55893705  0.46435395  0.45427837
Direct configuration=    17
   0.38425242  0.55080911  0.51489089
   0.38618292  0.49797684  0.48710550
   0.38033172  0.50034187  0.54609457
   0.45164820  0.45093052  0.50738559
   0.52542432  0.49821868  0.55059147
   0.56641472  0.42662122  0.54217923
   0.52410216  0.40488331  0.50752783
   0.51261149  0.41634501  0.56530411
   0.52386071  0.55431744  0.49701542
   0.59740955  0.54033405  0.43207960
   0.54489095  0.55097886  0.40695570
   0.56908040  0.59163215  0.44355029
   0.39621877  0.51639286  0.51718144
   0.44635122  0.51778213  0.52297086
   0.51693927  0.47505507  0.52338503
   0.53046059  0.42776344  0.53543066
   0.54185425  0.49078629  0.48085806
   0.56467205  0.55583396  0.43754595
   0.46855565  0.47854186  0.51744707
   0.54352130  0.53574672  0.47611645
   0.46622940  0.55279117  0.53276944
   0.55894213  0.46436529  0.45428865
Direct configuration=    18
   0.38424120  0.55080624  0.51487868
   0.38618898  0.49797321  0.48709494
   0.38032863  0.50034162  0.54608517
   0.45165269  0.45093729  0.50737321
   0.52541552  0.49820933  0.55059876
   0.56640999  0.42660865  0.54217531
   0.52409842  0.40487959  0.50751958
   0.51259916  0.41633478  0.56529969
   0.52386100  0.55431314  0.49702347
   0.59741218  0.54034294  0.43209127
   0.54489728  0.55099462  0.40696393
   0.56908078  0.59163859  0.44356480
   0.39621747  0.51639299  0.51717208
   0.44635506  0.51779346  0.52296989
   0.51693945  0.47505040  0.52338643
   0.53045439  0.42775416  0.53542836
   0.54186398  0.49077939  0.48085765
   0.56467460  0.55584030  0.43755805
   0.46855609  0.47854568  0.51744159
   0.54352427  0.53574593  0.47612526
   0.46623032  0.55279206  0.53277161
   0.55895284  0.46437198  0.45429321
Direct configuration=    19
   0.38422742  0.55080234  0.51486079
   0.38619718  0.49796805  0.48707998
   0.38032346  0.50034149  0.54607144
   0.45165739  0.45094428  0.50735632
   0.52540450  0.49819759  0.55060826
   0.56640406  0.42659317  0.54217146
   0.52409494  0.40487470  0.50750875
   0.51258369  0.41632098  0.56529341
   0.52386085  0.55430792  0.49703480
   0.59741609  0.54035495  0.43210722
   0.54490567  0.55101543  0.40697508
   0.56908165  0.59164742  0.44358468
   0.39621629  0.51639339  0.51715887
   0.44635500  0.51779804  0.52296608
   0.51693924  0.47504321  0.52338750
   0.53044676  0.42774268  0.53542580
   0.54187024  0.49078130  0.48086640
   0.56467771  0.55584964  0.43757466
   0.46855758  0.47855217  0.51743532
   0.54352870  0.53574321  0.47613619
   0.46623467  0.55279886  0.53277727
   0.55897124  0.46437322  0.45429113
Direct configuration=    20
   0.38421045  0.55079713  0.51483628
   0.38620803  0.49796104  0.48706010
   0.38031605  0.50034150  0.54605268
   0.45166239  0.45095182  0.50733414
   0.52539101  0.49818302  0.55062033
   0.56639656  0.42657415  0.54216773
   0.52409161  0.40486844  0.50749510
   0.51256456  0.41630304  0.56528493
   0.52386028  0.55430147  0.49704990
   0.59742146  0.54037062  0.43212798
   0.54491635  0.55104217  0.40698960
   0.56908298  0.59165904  0.44361084
   0.39621538  0.51639410  0.51714130
   0.44635063  0.51779515  0.52295902
   0.51693863  0.47503322  0.52338825
   0.53043740  0.42772851  0.53542291
   0.54187308  0.49079255  0.48088502
   0.56468145  0.55586246  0.43759638
   0.46856033  0.47856178  0.51742804
   0.54353472  0.53573848  0.47614954
   0.46624280  0.55281243  0.53278692
   0.55899823  0.46436871  0.45428209
Direct configuration=    21
   0.38418917  0.55079014  0.51480364
   0.38622240  0.49795161  0.48703458
   0.38030621  0.50034169  0.54602776
   0.45166811  0.45096089  0.50730553
   0.52537461  0.49816476  0.55063553
   0.56638677  0.42655046  0.54216417
   0.52408823  0.40486048  0.50747830
   0.51254082  0.41628010  0.56527380
   0.52385942  0.55429314  0.49706943
   0.59742846  0.54039091  0.43215442
   0.54492964  0.55107626  0.40700826
   0.56908463  0.59167413  0.44364485
   0.39621475  0.51639494  0.51711853
   0.44634330  0.51778744  0.52294913
   0.51693771  0.47502057  0.52338905
   0.53042591  0.42771073  0.53541946
   0.54187540  0.49080937  0.48091059
   0.56468612  0.55587931  0.43762391
   0.46856418  0.47857420  0.51741909
   0.54354210  0.53573268  0.47616618
   0.46625353  0.55283121  0.53280043
   0.55903293  0.46436150  0.45426920
Direct configuration=    22
   0.38416238  0.55078081  0.51476171
   0.38624127  0.49793917  0.48700339
   0.38029419  0.50034212  0.54599581
   0.45167551  0.45097351  0.50726979
   0.52535508  0.49814190  0.55065422
   0.56637379  0.42652095  0.54216089
   0.52408438  0.40485059  0.50745854
   0.51251167  0.41625162  0.56525974
   0.52385860  0.55428213  0.49709365
   0.59743691  0.54041666  0.43218686
   0.54494552  0.55111885  0.40703162
   0.56908615  0.59169330  0.44368804
   0.39621446  0.51639537  0.51708978
   0.44633799  0.51778432  0.52293874
   0.51693702  0.47500601  0.52339087
   0.53041177  0.42768857  0.53541487
   0.54188461  0.49082007  0.48093343
   0.56469211  0.55590022  0.43765739
   0.46856823  0.47858731  0.51740721
   0.54354986  0.53572854  0.47618722
   0.46626251  0.55284856  0.53281593
   0.55907036  0.46436040  0.45426188
Direct configuration=    23
   0.38412995  0.55076893  0.51471184
   0.38626478  0.49792370  0.48696849
   0.38028122  0.50034271  0.54595799
   0.45168531  0.45099136  0.50722809
   0.52533333  0.49811462  0.55067583
   0.56635732  0.42648562  0.54215804
   0.52407946  0.40483892  0.50743711
   0.51247765  0.41621859  0.56524333
   0.52385820  0.55426806  0.49712158
   0.59744618  0.54044735  0.43222371
   0.54496306  0.55116892  0.40705888
   0.56908689  0.59171603  0.44373931
   0.39621457  0.51639490  0.51705591
   0.44634010  0.51779636  0.52293082
   0.51693720  0.47499145  0.52339458
   0.53039499  0.42766244  0.53540870
   0.54190723  0.49081356  0.48094340
   0.56469932  0.55592412  0.43769505
   0.46857147  0.47859840  0.51739172
   0.54355688  0.53572841  0.47621242
   0.46626485  0.55285681  0.53283053
   0.55910437  0.46437323  0.45426910
Direct configuration=    24
   0.38409089  0.55075386  0.51465521
   0.38629369  0.49790473  0.48693222
   0.38026918  0.50034335  0.54591557
   0.45169767  0.45101614  0.50718103
   0.52531071  0.49808321  0.55069982
   0.56633672  0.42644382  0.54215593
   0.52407231  0.40482534  0.50741552
   0.51243914  0.41618197  0.56522512
   0.52385833  0.55425041  0.49715247
   0.59745561  0.54048265  0.43226293
   0.54498092  0.55122572  0.40708893
   0.56908594  0.59174179  0.44379752
   0.39621558  0.51639340  0.51701830
   0.44635207  0.51782825  0.52292659
   0.51693886  0.47497741  0.52340042
   0.53037517  0.42763311  0.53540114
   0.54194455  0.49078800  0.48093864
   0.56470747  0.55595066  0.43773514
   0.46857412  0.47860728  0.51737228
   0.54356294  0.53573186  0.47624042
   0.46625846  0.55285395  0.53284284
   0.55913397  0.46440031  0.45429263
Direct configuration=    25
   0.38404025  0.55073277  0.51459224
   0.38633201  0.49787951  0.48689917
   0.38026293  0.50034354  0.54587045
   0.45171156  0.45105144  0.50712707
   0.52529080  0.49804767  0.55072596
   0.56630944  0.42639164  0.54215566
   0.52405907  0.40480841  0.50739671
   0.51239554  0.41614265  0.56520562
   0.52385888  0.55422692  0.49718611
   0.59746432  0.54052329  0.43230036
   0.54499604  0.55129003  0.40711959
   0.56908086  0.59177014  0.44386172
   0.39621983  0.51639179  0.51697982
   0.44636877  0.51787045  0.52292251
   0.51694290  0.47496257  0.52340670
   0.53035008  0.42760188  0.53539347
   0.54198737  0.49076322  0.48093617
   0.56471481  0.55598157  0.43777562
   0.46858003  0.47862097  0.51734916
   0.54357006  0.53573197  0.47626671
   0.46624796  0.55285289  0.53285515
   0.55917071  0.46442419  0.45431859
Direct configuration=    26
   0.38403911  0.55073215  0.51459218
   0.38633294  0.49787883  0.48690003
   0.38026394  0.50034340  0.54587083
   0.45171134  0.45105222  0.50712659
   0.52529154  0.49804761  0.55072598
   0.56630887  0.42639071  0.54215591
   0.52405820  0.40480806  0.50739726
   0.51239530  0.41614278  0.56520571
   0.52385893  0.55422636  0.49718606
   0.59746414  0.54052354  0.43229954
   0.54499543  0.55129033  0.40711922
   0.56908033  0.59177016  0.44386169
   0.39622035  0.51639203  0.51698029
   0.44636751  0.51786798  0.52292162
   0.51694311  0.47496230  0.52340633
   0.53034958  0.42760208  0.53539372
   0.54198576  0.49076663  0.48093933
   0.56471437  0.55598187  0.43777523
   0.46858087  0.47862263  0.51734921
   0.54357039  0.53573083  0.47626590
   0.46624921  0.55285611  0.53285581
   0.55917299  0.46442096  0.45431612
Direct configuration=    27
   0.38403684  0.55073090  0.51459195
   0.38633483  0.49787746  0.48690166
   0.38026590  0.50034311  0.54587151
   0.45171094  0.45105384  0.50712557
   0.52529299  0.49804743  0.55072607
   0.56630769  0.42638881  0.54215641
   0.52405647  0.40480736  0.50739831
   0.51239475  0.41614297  0.56520586
   0.52385904  0.55422522  0.49718602
   0.59746380  0.54052411  0.43229799
   0.54499424  0.55129100  0.40711855
   0.56907929  0.59177024  0.44386175
   0.39622138  0.51639247  0.51698113
   0.44636526  0.51786355  0.52291998
   0.51694353  0.47496182  0.52340566
   0.53034857  0.42760243  0.53539417
   0.54198294  0.49077281  0.48094510
   0.56471355  0.55598248  0.43777453
   0.46858248  0.47862578  0.51734923
   0.54357100  0.53572872  0.47626442
   0.46625146  0.55286210  0.53285704
   0.55917728  0.46441501  0.45431173
Direct configuration=    28
   0.38403340  0.55072901  0.51459130
   0.38633775  0.49787534  0.48690390
   0.38026875  0.50034267  0.54587230
   0.45171043  0.45105643  0.50712385
   0.52529508  0.49804699  0.55072629
   0.56630583  0.42638582  0.54215718
   0.52405387  0.40480627  0.50739978
   0.51239376  0.41614309  0.56520596
   0.52385923  0.55422346  0.49718610
   0.59746334  0.54052516  0.43229589
   0.54499254  0.55129224  0.40711774
   0.56907775  0.59177051  0.44386222
   0.39622287  0.51639303  0.51698215
   0.44636252  0.51785818  0.52291781
   0.51694419  0.47496122  0.52340478
   0.53034698  0.42760278  0.53539470
   0.54197971  0.49078056  0.48095246
   0.56471243  0.55598345  0.43777365
   0.46858473  0.47863013  0.51734905
   0.54357178  0.53572595  0.47626247
   0.46625423  0.55287007  0.53285868
   0.55918308  0.46440736  0.45430645
Direct configuration=    29
   0.38402870  0.55072641  0.51458969
   0.38634193  0.49787231  0.48690639
   0.38027236  0.50034208  0.54587279
   0.45170993  0.45106025  0.50712106
   0.52529773  0.49804599  0.55072679
   0.56630308  0.42638148  0.54215829
   0.52405033  0.40480469  0.50740146
   0.51239204  0.41614284  0.56520582
   0.52385950  0.55422096  0.49718656
   0.59746283  0.54052699  0.43229358
   0.54499048  0.55129443  0.40711714
   0.56907573  0.59177121  0.44386371
   0.39622475  0.51639356  0.51698291
   0.44636012  0.51785348  0.52291549
   0.51694510  0.47496064  0.52340387
   0.53034469  0.42760289  0.53539511
   0.54197733  0.49078790  0.48095983
   0.56471117  0.55598498  0.43777289
   0.46858739  0.47863521  0.51734836
   0.54357259  0.53572306  0.47626047
   0.46625674  0.55287875  0.53286051
   0.55918970  0.46439959  0.45430198
Direct configuration=    30
   0.38402307  0.55072326  0.51458665
   0.38634722  0.49786850  0.48690850
   0.38027623  0.50034137  0.54587246
   0.45170959  0.45106517  0.50711701
   0.52530058  0.49804423  0.55072770
   0.56629948  0.42637588  0.54215967
   0.52404615  0.40480268  0.50740297
   0.51238944  0.41614190  0.56520519
   0.52385985  0.55421786  0.49718767
   0.59746243  0.54052982  0.43229170
   0.54498841  0.55129784  0.40711717
   0.56907347  0.59177258  0.44386679
   0.39622680  0.51639390  0.51698291
   0.44635888  0.51785105  0.52291344
   0.51694619  0.47496019  0.52340315
   0.53034174  0.42760250  0.53539518
   0.54197699  0.49079281  0.48096551
   0.56471007  0.55598715  0.43777273
   0.46859006  0.47864019  0.51734691
   0.54357327  0.53572072  0.47625901
   0.46625816  0.55288636  0.53286227
   0.55919615  0.46439360  0.45429999
Direct configuration=    31
   0.38401688  0.55071974  0.51458183
   0.38635340  0.49786407  0.48690960
   0.38027988  0.50034062  0.54587086
   0.45170945  0.45107090  0.50711157
   0.52530331  0.49804157  0.55072912
   0.56629515  0.42636920  0.54216128
   0.52404163  0.40480029  0.50740394
   0.51238586  0.41613998  0.56520387
   0.52386020  0.55421433  0.49718969
   0.59746232  0.54053376  0.43229083
   0.54498670  0.55130263  0.40711821
   0.56907123  0.59177477  0.44387188
   0.39622883  0.51639393  0.51698169
   0.44635900  0.51785149  0.52291180
   0.51694736  0.47495984  0.52340274
   0.53033824  0.42760140  0.53539475
   0.54197910  0.49079447  0.48096879
   0.56470935  0.55599003  0.43777360
   0.46859244  0.47864453  0.51734461
   0.54357377  0.53571931  0.47625852
   0.46625812  0.55289192  0.53286391
   0.55920199  0.46439036  0.45430115
Direct configuration=    32
   0.38400960  0.55071553  0.51457389
   0.38636123  0.49785851  0.48690901
   0.38028322  0.50033977  0.54586707
   0.45170952  0.45107797  0.50710362
   0.52530589  0.49803738  0.55073143
   0.56628950  0.42636058  0.54216331
   0.52403645  0.40479722  0.50740397
   0.51238058  0.41613637  0.56520133
   0.52386052  0.55421005  0.49719332
   0.59746274  0.54053966  0.43229166
   0.54498555  0.55130987  0.40712095
   0.56906899  0.59177839  0.44388046
   0.39623095  0.51639356  0.51697844
   0.44636074  0.51785537  0.52291046
   0.51694862  0.47495943  0.52340270
   0.53033373  0.42759915  0.53539353
   0.54198438  0.49079250  0.48096966
   0.56470920  0.55599426  0.43777632
   0.46859458  0.47864830  0.51734095
   0.54357415  0.53571896  0.47625955
   0.46625624  0.55289520  0.53286570
   0.55920781  0.46439034  0.45430625
Direct configuration=    33
   0.38400113  0.55071049  0.51456140
   0.38637114  0.49785150  0.48690559
   0.38028577  0.50033884  0.54585997
   0.45170983  0.45108650  0.50709211
   0.52530803  0.49803104  0.55073505
   0.56628214  0.42634944  0.54216585
   0.52403059  0.40479326  0.50740240
   0.51237292  0.41613025  0.56519696
   0.52386072  0.55420491  0.49719938
   0.59746402  0.54054830  0.43229526
   0.54498546  0.55132060  0.40712628
   0.56906696  0.59178406  0.44389408
   0.39623309  0.51639265  0.51697211
   0.44636431  0.51786303  0.52290930
   0.51694987  0.47495870  0.52340310
   0.53032790  0.42759522  0.53539121
   0.54199327  0.49078674  0.48096822
   0.56470992  0.55600047  0.43778195
   0.46859631  0.47865130  0.51733549
   0.54357447  0.53571991  0.47626283
   0.46625219  0.55289565  0.53286795
   0.55921413  0.46439412  0.45431587
Direct configuration=    34
   0.38399122  0.55070443  0.51454270
   0.38638372  0.49784259  0.48689807
   0.38028707  0.50033779  0.54584832
   0.45171030  0.45109665  0.50707569
   0.52530947  0.49802187  0.55074046
   0.56627257  0.42633502  0.54216904
   0.52402392  0.40478812  0.50739849
   0.51236200  0.41612069  0.56519005
   0.52386063  0.55419876  0.49720883
   0.59746656  0.54056065  0.43230279
   0.54498693  0.55133607  0.40713517
   0.56906535  0.59179249  0.44391454
   0.39623528  0.51639111  0.51696158
   0.44636926  0.51787378  0.52290785
   0.51695102  0.47495719  0.52340392
   0.53032034  0.42758899  0.53538748
   0.54200551  0.49077846  0.48096590
   0.56471174  0.55600955  0.43779182
   0.46859765  0.47865374  0.51732778
   0.54357499  0.53572197  0.47626909
   0.46624615  0.55289367  0.53287133
   0.55922241  0.46440120  0.45432958
Direct configuration=    35
   0.38397948  0.55069703  0.51451620
   0.38639972  0.49783116  0.48688531
   0.38028686  0.50033656  0.54583106
   0.45171079  0.45110853  0.50705297
   0.52531012  0.49800928  0.55074812
   0.56626030  0.42631645  0.54217304
   0.52401615  0.40478148  0.50739156
   0.51234693  0.41610684  0.56517995
   0.52386012  0.55419145  0.49722261
   0.59747074  0.54057769  0.43231521