   6   6   0   0
  0.4500000E+04  0.3000000E-08  0.3000000E-08  0.3000000E-08  0.0000000E+00
  1.000000000000000E-004
  CAR 
 unknown system                          
      2.02060909    -24.52364413  301     -7.09257222      1.00000000
    -24.524  0.0000E+00  0.0000E+00
    -24.435  0.0000E+00  0.0000E+00
    -24.347  0.0000E+00  0.0000E+00
    -24.258  0.0000E+00  0.0000E+00
    -24.170  0.0000E+00  0.0000E+00
    -24.081  0.0000E+00  0.0000E+00
    -23.993  0.0000E+00  0.0000E+00
    -23.904  0.0000E+00  0.0000E+00
    -23.816  0.0000E+00  0.0000E+00
    -23.727  0.0000E+00  0.0000E+00
    -23.639  0.1171E-15  0.1036E-16
    -23.550  0.1447E-13  0.1291E-14
    -23.462  0.1214E-11  0.1087E-12
    -23.373  0.6925E-10  0.6236E-11
    -23.285  0.2689E-08  0.2442E-09
    -23.196  0.7114E-07  0.6539E-08
    -23.108  0.1283E-05  0.1200E-06
    -23.019  0.1578E-04  0.1516E-05
    -22.931  0.1325E-03  0.1324E-04
    -22.843  0.7602E-03  0.8050E-04
    -22.754  0.2982E-02  0.3443E-03
    -22.666  0.8000E-02  0.1052E-02
    -22.577  0.1469E-01  0.2352E-02
    -22.489  0.1847E-01  0.3986E-02
    -22.400  0.1589E-01  0.5392E-02
    -22.312  0.9363E-02  0.6221E-02
    -22.223  0.3776E-02  0.6555E-02
    -22.135  0.1042E-02  0.6647E-02
    -22.046  0.1965E-03  0.6664E-02
    -21.958  0.2532E-04  0.6666E-02
    -21.869  0.2228E-05  0.6667E-02
    -21.781  0.1338E-06  0.6667E-02
    -21.692  0.5478E-08  0.6667E-02
    -21.604  0.1528E-09  0.6667E-02
    -21.515  0.2900E-11  0.6667E-02
    -21.427  0.3745E-13  0.6667E-02
    -21.338  0.3346E-15  0.6667E-02
    -21.250  0.0000E+00  0.6667E-02
    -21.161  0.0000E+00  0.6667E-02
    -21.073  0.0000E+00  0.6667E-02
    -20.984  0.0000E+00  0.6667E-02
    -20.896  0.0000E+00  0.6667E-02
    -20.807  0.0000E+00  0.6667E-02
    -20.719  0.0000E+00  0.6667E-02
    -20.630  0.0000E+00  0.6667E-02
    -20.542  0.8365E-17  0.6667E-02
    -20.454  0.1062E-14  0.6667E-02
    -20.365  0.1105E-12  0.6667E-02
    -20.277  0.7799E-11  0.6667E-02
    -20.188  0.3745E-09  0.6667E-02
    -20.100  0.1224E-07  0.6667E-02
    -20.011  0.2727E-06  0.6667E-02
    -19.923  0.4142E-05  0.6667E-02
    -19.834  0.4293E-04  0.6671E-02
    -19.746  0.3039E-03  0.6698E-02
    -19.657  0.1470E-02  0.6828E-02
    -19.569  0.4864E-02  0.7258E-02
    -19.480  0.1101E-01  0.8232E-02
    -19.392  0.1706E-01  0.9742E-02
    -19.303  0.1809E-01  0.1134E-01
    -19.215  0.1314E-01  0.1250E-01
    -19.126  0.6531E-02  0.1308E-01
    -19.038  0.2222E-02  0.1328E-01
    -18.949  0.5169E-03  0.1333E-01
    -18.861  0.8221E-04  0.1333E-01
    -18.772  0.8932E-05  0.1333E-01
    -18.684  0.6623E-06  0.1333E-01
    -18.595  0.3350E-07  0.1333E-01
    -18.507  0.1155E-08  0.1333E-01
    -18.418  0.2710E-10  0.1333E-01
    -18.330  0.4330E-12  0.1333E-01
    -18.242  0.4701E-14  0.1333E-01
    -18.153  0.3346E-16  0.1333E-01
    -18.065  0.0000E+00  0.1333E-01
    -17.976  0.0000E+00  0.1333E-01
    -17.888  0.0000E+00  0.1333E-01
    -17.799  0.0000E+00  0.1333E-01
    -17.711  0.0000E+00  0.1333E-01
    -17.622  0.0000E+00  0.1333E-01
    -17.534  0.0000E+00  0.1333E-01
    -17.445  0.0000E+00  0.1333E-01
    -17.357  0.0000E+00  0.1333E-01
    -17.268  0.0000E+00  0.1333E-01
    -17.180  0.0000E+00  0.1333E-01
    -17.091  0.0000E+00  0.1333E-01
    -17.003  0.0000E+00  0.1333E-01
    -16.914  0.0000E+00  0.1333E-01
    -16.826  0.0000E+00  0.1333E-01
    -16.737  0.0000E+00  0.1333E-01
    -16.649  0.0000E+00  0.1333E-01
    -16.560  0.0000E+00  0.1333E-01
    -16.472  0.0000E+00  0.1333E-01
    -16.383  0.0000E+00  0.1333E-01
    -16.295  0.0000E+00  0.1333E-01
    -16.206  0.0000E+00  0.1333E-01
    -16.118  0.0000E+00  0.1333E-01
    -16.029  0.0000E+00  0.1333E-01
    -15.941  0.0000E+00  0.1333E-01
    -15.853  0.0000E+00  0.1333E-01
    -15.764  0.0000E+00  0.1333E-01
    -15.676  0.0000E+00  0.1333E-01
    -15.587  0.0000E+00  0.1333E-01
    -15.499  0.0000E+00  0.1333E-01
    -15.410  0.0000E+00  0.1333E-01
    -15.322  0.0000E+00  0.1333E-01
    -15.233  0.0000E+00  0.1333E-01
    -15.145  0.0000E+00  0.1333E-01
    -15.056  0.0000E+00  0.1333E-01
    -14.968  0.0000E+00  0.1333E-01
    -14.879  0.0000E+00  0.1333E-01
    -14.791  0.0000E+00  0.1333E-01
    -14.702  0.0000E+00  0.1333E-01
    -14.614  0.0000E+00  0.1333E-01
    -14.525  0.0000E+00  0.1333E-01
    -14.437  0.0000E+00  0.1333E-01
    -14.348  0.0000E+00  0.1333E-01
    -14.260  0.0000E+00  0.1333E-01
    -14.171  0.0000E+00  0.1333E-01
    -14.083  0.0000E+00  0.1333E-01
    -13.994  0.8365E-17  0.1333E-01
    -13.906  0.1108E-14  0.1333E-01
    -13.817  0.1147E-12  0.1333E-01
    -13.729  0.8070E-11  0.1333E-01
    -13.641  0.3862E-09  0.1333E-01
    -13.552  0.1259E-07  0.1333E-01
    -13.464  0.2794E-06  0.1333E-01
    -13.375  0.4231E-05  0.1333E-01
    -13.287  0.4371E-04  0.1334E-01
    -13.198  0.3085E-03  0.1336E-01
    -13.110  0.1487E-02  0.1350E-01
    -13.021  0.4905E-02  0.1393E-01
    -12.933  0.1107E-01  0.1491E-01
    -12.844  0.1709E-01  0.1642E-01
    -12.756  0.1807E-01  0.1802E-01
    -12.667  0.1308E-01  0.1918E-01
    -12.579  0.6483E-02  0.1975E-01
    -12.490  0.2198E-02  0.1995E-01
    -12.402  0.5098E-03  0.1999E-01
    -12.313  0.8082E-04  0.2000E-01
    -12.225  0.8759E-05  0.2000E-01
    -12.136  0.8234E-06  0.2000E-01
    -12.048  0.3131E-05  0.2000E-01
    -11.959  0.3710E-04  0.2000E-01
    -11.871  0.3033E-03  0.2003E-01
    -11.782  0.1694E-02  0.2018E-01
    -11.694  0.6471E-02  0.2075E-01
    -11.605  0.1691E-01  0.2225E-01
    -11.517  0.3023E-01  0.2492E-01
    -11.428  0.3700E-01  0.2820E-01
    -11.340  0.3101E-01  0.3094E-01
    -11.252  0.1779E-01  0.3251E-01
    -11.163  0.6985E-02  0.3313E-01
    -11.075  0.1876E-02  0.3330E-01
    -10.986  0.3446E-03  0.3333E-01
    -10.898  0.4324E-04  0.3333E-01
    -10.809  0.3705E-05  0.3333E-01
    -10.721  0.2166E-06  0.3333E-01
    -10.632  0.8630E-08  0.3333E-01
    -10.544  0.2343E-09  0.3333E-01
    -10.455  0.4329E-11  0.3333E-01
    -10.367  0.5441E-13  0.3333E-01
    -10.278  0.4684E-15  0.3333E-01
    -10.190  0.0000E+00  0.3333E-01
    -10.101  0.0000E+00  0.3333E-01
    -10.013  0.0000E+00  0.3333E-01
     -9.924  0.0000E+00  0.3333E-01
     -9.836  0.0000E+00  0.3333E-01
     -9.747  0.0000E+00  0.3333E-01
     -9.659  0.8365E-17  0.3333E-01
     -9.570  0.1021E-14  0.3333E-01
     -9.482  0.1063E-12  0.3333E-01
     -9.393  0.7525E-11  0.3333E-01
     -9.305  0.3625E-09  0.3333E-01
     -9.216  0.1189E-07  0.3333E-01
     -9.128  0.2658E-06  0.3333E-01
     -9.039  0.4051E-05  0.3333E-01
     -8.951  0.4213E-04  0.3334E-01
     -8.863  0.2992E-03  0.3336E-01
     -8.774  0.1452E-02  0.3349E-01
     -8.686  0.4822E-02  0.3392E-01
     -8.597  0.1096E-01  0.3489E-01
     -8.509  0.1713E-01  0.3640E-01
     -8.420  0.1887E-01  0.3807E-01
     -8.332  0.1669E-01  0.3955E-01
     -8.243  0.1760E-01  0.4111E-01
     -8.155  0.2602E-01  0.4341E-01
     -8.066  0.3562E-01  0.4656E-01
     -7.978  0.3557E-01  0.4971E-01
     -7.889  0.2457E-01  0.5188E-01
     -7.801  0.1164E-01  0.5291E-01
     -7.712  0.3772E-02  0.5325E-01
     -7.624  0.8363E-03  0.5332E-01
     -7.535  0.1267E-03  0.5333E-01
     -7.447  0.1312E-04  0.5333E-01
     -7.358  0.9267E-06  0.5333E-01
     -7.270  0.4465E-07  0.5333E-01
     -7.181  0.1466E-08  0.5333E-01
     -7.093  0.3277E-10  0.5333E-01
     -7.004  0.4986E-12  0.5333E-01
     -6.916  0.5157E-14  0.5333E-01
     -6.827  0.3346E-16  0.5333E-01
     -6.739  0.0000E+00  0.5333E-01
     -6.651  0.0000E+00  0.5333E-01
     -6.562  0.0000E+00  0.5333E-01
     -6.474  0.0000E+00  0.5333E-01
     -6.385  0.0000E+00  0.5333E-01
     -6.297  0.0000E+00  0.5333E-01
     -6.208  0.0000E+00  0.5333E-01
     -6.120  0.0000E+00  0.5333E-01
     -6.031  0.0000E+00  0.5333E-01
     -5.943  0.0000E+00  0.5333E-01
     -5.854  0.0000E+00  0.5333E-01
     -5.766  0.0000E+00  0.5333E-01
     -5.677  0.0000E+00  0.5333E-01
     -5.589  0.0000E+00  0.5333E-01
     -5.500  0.0000E+00  0.5333E-01
     -5.412  0.0000E+00  0.5333E-01
     -5.323  0.0000E+00  0.5333E-01
     -5.235  0.0000E+00  0.5333E-01
     -5.146  0.0000E+00  0.5333E-01
     -5.058  0.0000E+00  0.5333E-01
     -4.969  0.0000E+00  0.5333E-01
     -4.881  0.0000E+00  0.5333E-01
     -4.792  0.0000E+00  0.5333E-01
     -4.704  0.0000E+00  0.5333E-01
     -4.615  0.0000E+00  0.5333E-01
     -4.527  0.0000E+00  0.5333E-01
     -4.438  0.0000E+00  0.5333E-01
     -4.350  0.0000E+00  0.5333E-01
     -4.262  0.0000E+00  0.5333E-01
     -4.173  0.0000E+00  0.5333E-01
     -4.085  0.0000E+00  0.5333E-01
     -3.996  0.0000E+00  0.5333E-01
     -3.908  0.0000E+00  0.5333E-01
     -3.819  0.0000E+00  0.5333E-01
     -3.731  0.0000E+00  0.5333E-01
     -3.642  0.0000E+00  0.5333E-01
     -3.554  0.0000E+00  0.5333E-01
     -3.465  0.0000E+00  0.5333E-01
     -3.377  0.0000E+00  0.5333E-01
     -3.288  0.0000E+00  0.5333E-01
     -3.200  0.0000E+00  0.5333E-01
     -3.111  0.0000E+00  0.5333E-01
     -3.023  0.0000E+00  0.5333E-01
     -2.934  0.0000E+00  0.5333E-01
     -2.846  0.0000E+00  0.5333E-01
     -2.757  0.0000E+00  0.5333E-01
     -2.669  0.0000E+00  0.5333E-01
     -2.580  0.0000E+00  0.5333E-01
     -2.492  0.0000E+00  0.5333E-01
     -2.403  0.0000E+00  0.5333E-01
     -2.315  0.0000E+00  0.5333E-01
     -2.226  0.0000E+00  0.5333E-01
     -2.138  0.0000E+00  0.5333E-01
     -2.050  0.0000E+00  0.5333E-01
     -1.961  0.6692E-16  0.5333E-01
     -1.873  0.8532E-14  0.5333E-01
     -1.784  0.7477E-12  0.5333E-01
     -1.696  0.4457E-10  0.5333E-01
     -1.607  0.1808E-08  0.5333E-01
     -1.519  0.4997E-07  0.5333E-01
     -1.430  0.9411E-06  0.5333E-01
     -1.342  0.1209E-04  0.5333E-01
     -1.253  0.1060E-03  0.5334E-01
     -1.165  0.6353E-03  0.5340E-01
     -1.076  0.2603E-02  0.5363E-01
     -0.988  0.7306E-02  0.5428E-01
     -0.899  0.1414E-01  0.5553E-01
     -0.811  0.1937E-01  0.5724E-01
     -0.722  0.2090E-01  0.5909E-01
     -0.634  0.2316E-01  0.6114E-01
     -0.545  0.3051E-01  0.6384E-01
     -0.457  0.3743E-01  0.6715E-01
     -0.368  0.3458E-01  0.7021E-01
     -0.280  0.2314E-01  0.7226E-01
     -0.191  0.1354E-01  0.7346E-01
     -0.103  0.1232E-01  0.7455E-01
     -0.014  0.1651E-01  0.7601E-01
      0.074  0.1855E-01  0.7765E-01
      0.163  0.1470E-01  0.7895E-01
      0.251  0.7999E-02  0.7966E-01
      0.339  0.2980E-02  0.7992E-01
      0.428  0.7598E-03  0.7999E-01
      0.516  0.1324E-03  0.8000E-01
      0.605  0.1577E-04  0.8000E-01
      0.693  0.1282E-05  0.8000E-01
      0.782  0.7106E-07  0.8000E-01
      0.870  0.2686E-08  0.8000E-01
      0.959  0.6915E-10  0.8000E-01
      1.047  0.1212E-11  0.8000E-01
      1.136  0.1445E-13  0.8000E-01
      1.224  0.1171E-15  0.8000E-01
      1.313  0.0000E+00  0.8000E-01
      1.401  0.0000E+00  0.8000E-01
      1.490  0.0000E+00  0.8000E-01
      1.578  0.0000E+00  0.8000E-01
      1.667  0.0000E+00  0.8000E-01
      1.755  0.0000E+00  0.8000E-01
      1.844  0.0000E+00  0.8000E-01
      1.932  0.0000E+00  0.8000E-01
      2.021  0.0000E+00  0.8000E-01
