    6    6  300    1
  0.4500000E+04  0.3000000E-08  0.3000000E-08  0.3000000E-08  0.0000000E+00
  1.000000000000000E-004
  CAR 
 unknown system                          
     16      4     12
 
  0.2500000E+00  0.2500000E+00  0.2500000E+00  0.2500000E+00
    1      -22.523644   1.000000
    2      -19.377991   1.000000
    3      -12.831154   1.000000
    4      -11.470095   1.000000
    5      -11.469395   1.000000
    6       -8.494072   1.000000
    7       -8.063760   1.000000
    8       -8.063568   1.000000
    9       -0.835770   0.000000
   10       -0.470509   0.000000
   11       -0.470169   0.000000
   12        0.020609   0.000000
 
 -0.2500000E+00  0.2500000E+00  0.2500000E+00  0.2500000E+00
    1      -22.523642   1.000000
    2      -19.377993   1.000000
    3      -12.831154   1.000000
    4      -11.470096   1.000000
    5      -11.469395   1.000000
    6       -8.494065   1.000000
    7       -8.063762   1.000000
    8       -8.063571   1.000000
    9       -0.835770   0.000000
   10       -0.470503   0.000000
   11       -0.470166   0.000000
   12        0.020531   0.000000
 
  0.2500000E+00 -0.2500000E+00  0.2500000E+00  0.2500000E+00
    1      -22.523644   1.000000
    2      -19.377991   1.000000
    3      -12.831153   1.000000
    4      -11.470102   1.000000
    5      -11.469400   1.000000
    6       -8.494070   1.000000
    7       -8.063771   1.000000
    8       -8.063550   1.000000
    9       -0.835770   0.000000
   10       -0.470508   0.000000
   11       -0.470172   0.000000
   12        0.020608   0.000000
 
 -0.2500000E+00 -0.2500000E+00  0.2500000E+00  0.2500000E+00
    1      -22.523644   1.000000
    2      -19.377991   1.000000
    3      -12.831154   1.000000
    4      -11.470102   1.000000
    5      -11.469399   1.000000
    6       -8.494068   1.000000
    7       -8.063776   1.000000
    8       -8.063553   1.000000
    9       -0.835769   0.000000
   10       -0.470509   0.000000
   11       -0.470161   0.000000
   12        0.020552   0.000000
