       N       E                     dE             d eps       ncg     rms          rms(c)
DAV:   1     0.115910721134E+03    0.11591E+03   -0.21185E+03   160   0.366E+02
DAV:   2    -0.324537685957E+00   -0.11624E+03   -0.11345E+03   192   0.108E+02
DAV:   3    -0.371216448184E+02   -0.36797E+02   -0.36672E+02   120   0.940E+01
DAV:   4    -0.407446531147E+02   -0.36230E+01   -0.36048E+01   128   0.288E+01
DAV:   5    -0.408296161125E+02   -0.84963E-01   -0.82249E-01   124   0.474E+00    0.109E+01
DAV:   6    -0.375460261825E+02    0.32836E+01   -0.66414E+00   112   0.175E+01    0.594E+00
DAV:   7    -0.368838465879E+02    0.66218E+00   -0.14089E+00   116   0.837E+00    0.300E+00
DAV:   8    -0.367108909308E+02    0.17296E+00   -0.41558E-01   128   0.479E+00    0.109E+00
DAV:   9    -0.366856386532E+02    0.25252E-01   -0.34034E-02   128   0.152E+00    0.328E-01
DAV:  10    -0.366812588077E+02    0.43798E-02   -0.47425E-03   128   0.594E-01    0.145E-01
DAV:  11    -0.366824324480E+02   -0.11736E-02   -0.18382E-03   128   0.329E-01    0.950E-02
DAV:  12    -0.366892499075E+02   -0.68175E-02   -0.49677E-03   112   0.527E-01    0.492E-02
DAV:  13    -0.366936208418E+02   -0.43709E-02   -0.11965E-03   160   0.236E-01    0.353E-02
DAV:  14    -0.366978665391E+02   -0.42457E-02   -0.54965E-04   128   0.145E-01    0.237E-02
DAV:  15    -0.367008673294E+02   -0.30008E-02   -0.28748E-04   128   0.889E-02    0.146E-02
DAV:  16    -0.367031151239E+02   -0.22478E-02   -0.25961E-04   128   0.928E-02    0.105E-02
DAV:  17    -0.367040200058E+02   -0.90488E-03   -0.43709E-05    96   0.491E-02    0.398E-03
DAV:  18    -0.367044796516E+02   -0.45965E-03   -0.26390E-05    80   0.301E-02    0.292E-03
DAV:  19    -0.367047403274E+02   -0.26068E-03   -0.12388E-05    80   0.199E-02    0.159E-03
DAV:  20    -0.367048496672E+02   -0.10934E-03   -0.33279E-06    88   0.128E-02    0.158E-03
DAV:  21    -0.367048936338E+02   -0.43967E-04   -0.12844E-06    72   0.769E-03
   1 F= -.36704894E+02 E0= -.36704894E+02  d E =-.367049E+02
       N       E                     dE             d eps       ncg     rms          rms(c)
DAV:   1    -0.367049171126E+02   -0.67445E-04   -0.57006E-05    84   0.694E-02    0.288E-03
DAV:   2    -0.367049227843E+02   -0.56717E-05   -0.28414E-06    92   0.165E-02    0.163E-03
DAV:   3    -0.367049280221E+02   -0.52378E-05   -0.31252E-07    80   0.508E-03    0.943E-04
DAV:   4    -0.367049352920E+02   -0.72699E-05   -0.12830E-07    64   0.323E-03    0.252E-04
DAV:   5    -0.367049369110E+02   -0.16190E-05   -0.32176E-08    72   0.139E-03    0.182E-04
DAV:   6    -0.367049391383E+02   -0.22273E-05   -0.12779E-08    64   0.696E-04
   2 F= -.36704939E+02 E0= -.36704939E+02  d E =-.455045E-04
       N       E                     dE             d eps       ncg     rms          rms(c)
DAV:   1    -0.367049424158E+02   -0.55048E-05   -0.80015E-06    64   0.257E-02    0.119E-03
DAV:   2    -0.367049431440E+02   -0.72822E-06   -0.37695E-07    48   0.602E-03    0.638E-04
DAV:   3    -0.367049438293E+02   -0.68534E-06   -0.43302E-08    88   0.177E-03    0.360E-04
DAV:   4    -0.367049448431E+02   -0.10138E-05   -0.30579E-08    64   0.132E-03    0.120E-04
DAV:   5    -0.367049450904E+02   -0.24730E-06   -0.13568E-08    48   0.580E-04    0.825E-05
DAV:   6    -0.367049455058E+02   -0.41541E-06   -0.11524E-08    80   0.294E-04
   3 F= -.36704946E+02 E0= -.36704946E+02  d E =-.636748E-05
       N       E                     dE             d eps       ncg     rms          rms(c)
DAV:   1    -0.367049459862E+02   -0.89584E-06   -0.15851E-05    64   0.362E-02    0.161E-03
DAV:   2    -0.367049461848E+02   -0.19861E-06   -0.76256E-07    48   0.857E-03    0.882E-04
DAV:   3    -0.367049463330E+02   -0.14814E-06   -0.86079E-08    48   0.257E-03    0.496E-04
DAV:   4    -0.367049465642E+02   -0.23118E-06   -0.54984E-08    80   0.190E-03    0.169E-04
DAV:   5    -0.367049466188E+02   -0.54603E-07   -0.18411E-08    48   0.843E-04    0.117E-04
DAV:   6    -0.367049467110E+02   -0.92273E-07   -0.12094E-08    48   0.415E-04
   4 F= -.36704947E+02 E0= -.36704947E+02  d E =-.120524E-05
       N       E                     dE             d eps       ncg     rms          rms(c)
DAV:   1    -0.367049468644E+02   -0.24564E-06   -0.13798E-07    48   0.329E-03    0.130E-04
DAV:   2    -0.367049469067E+02   -0.42252E-07   -0.14995E-08    48   0.789E-04    0.735E-05
DAV:   3    -0.367049469494E+02   -0.42720E-07   -0.90167E-09    48   0.234E-04    0.438E-05
DAV:   4    -0.367049470253E+02   -0.75971E-07   -0.80628E-09    80   0.154E-04    0.121E-05
DAV:   5    -0.367049470492E+02   -0.23872E-07   -0.77976E-09    48   0.688E-05    0.902E-06
DAV:   6    -0.367049470753E+02   -0.26031E-07   -0.76876E-09    48   0.372E-05
   5 F= -.36704947E+02 E0= -.36704947E+02  d E =-.364212E-06
       N       E                     dE             d eps       ncg     rms          rms(c)
DAV:   1    -0.367049472076E+02   -0.15834E-06   -0.46223E-07    80   0.616E-03    0.250E-04
DAV:   2    -0.367049472167E+02   -0.90997E-08   -0.30973E-08    48   0.146E-03    0.142E-04
DAV:   3    -0.367049472277E+02   -0.11020E-07   -0.12158E-08    48   0.439E-04    0.822E-05
DAV:   4    -0.367049472472E+02   -0.19566E-07   -0.12653E-08    48   0.313E-04    0.272E-05
DAV:   5    -0.367049472529E+02   -0.56614E-08   -0.12214E-08    48   0.139E-04    0.194E-05
DAV:   6    -0.367049472617E+02   -0.88006E-08   -0.12714E-08    48   0.699E-05
   6 F= -.36704947E+02 E0= -.36704947E+02  d E =-.186454E-06
       N       E                     dE             d eps       ncg     rms          rms(c)
DAV:   1    -0.367049473612E+02   -0.10828E-06   -0.82961E-07    48   0.827E-03    0.318E-04
DAV:   2    -0.367049473628E+02   -0.15991E-08   -0.52519E-08    48   0.196E-03    0.185E-04
DAV:   3    -0.367049473644E+02   -0.16506E-08   -0.17329E-08    48   0.589E-04    0.108E-04
DAV:   4    -0.367049473675E+02   -0.31021E-08   -0.14918E-08    48   0.409E-04    0.354E-05
DAV:   5    -0.367049473692E+02   -0.16655E-08   -0.13257E-08    48   0.182E-04    0.255E-05
DAV:   6    -0.367049473711E+02   -0.19495E-08   -0.12738E-08    48   0.908E-05
   7 F= -.36704947E+02 E0= -.36704947E+02  d E =-.109443E-06
       N       E                     dE             d eps       ncg     rms          rms(c)
DAV:   1    -0.367049474505E+02   -0.81311E-07   -0.10656E-06    48   0.938E-03    0.324E-04
DAV:   2    -0.367049474505E+02   -0.27967E-10   -0.62979E-08    48   0.222E-03    0.196E-04
DAV:   3    -0.367049474493E+02    0.12114E-08   -0.17679E-08    48   0.665E-04    0.117E-04
DAV:   4    -0.367049474487E+02    0.64824E-09   -0.14534E-08    48   0.441E-04    0.374E-05
DAV:   5    -0.367049474492E+02   -0.51728E-09   -0.12714E-08    48   0.197E-04    0.276E-05
DAV:   6    -0.367049474497E+02   -0.50022E-09   -0.12261E-08    48   0.988E-05
   8 F= -.36704947E+02 E0= -.36704947E+02  d E =-.785476E-07
       N       E                     dE             d eps       ncg     rms          rms(c)
DAV:   1    -0.367049475232E+02   -0.74008E-07   -0.11179E-06    48   0.952E-03    0.270E-04
DAV:   2    -0.367049475247E+02   -0.15393E-08   -0.64725E-08    48   0.224E-03    0.173E-04
DAV:   3    -0.367049475236E+02    0.11064E-08   -0.17781E-08    48   0.665E-04    0.107E-04
DAV:   4    -0.367049475226E+02    0.10243E-08   -0.13981E-08    48   0.405E-04    0.320E-05
DAV:   5    -0.367049475231E+02   -0.53433E-09   -0.12493E-08    48   0.185E-04    0.247E-05
DAV:   6    -0.367049475234E+02   -0.20327E-09   -0.12079E-08    48   0.934E-05
   9 F= -.36704948E+02 E0= -.36704948E+02  d E =-.736538E-07
       N       E                     dE             d eps       ncg     rms          rms(c)
DAV:   1    -0.367049476162E+02   -0.93093E-07   -0.11528E-06    48   0.946E-03    0.210E-04
DAV:   2    -0.367049476198E+02   -0.35752E-08   -0.65014E-08    48   0.222E-03    0.140E-04
DAV:   3    -0.367049476195E+02    0.31969E-09   -0.17872E-08    48   0.645E-04    0.832E-05
DAV:   4    -0.367049476190E+02    0.50454E-09   -0.13512E-08    48   0.343E-04    0.209E-05
DAV:   5    -0.367049476193E+02   -0.26080E-09   -0.12397E-08    48   0.159E-04    0.183E-05
DAV:   6    -0.367049476194E+02   -0.15234E-09   -0.12034E-08    48   0.840E-05
  10 F= -.36704948E+02 E0= -.36704948E+02  d E =-.960537E-07
       N       E                     dE             d eps       ncg     rms          rms(c)
DAV:   1    -0.367049477655E+02   -0.14621E-06   -0.16881E-06    48   0.113E-02    0.225E-04
DAV:   2    -0.367049477727E+02   -0.72839E-08   -0.88685E-08    48   0.266E-03    0.150E-04
DAV:   3    -0.367049477739E+02   -0.11387E-08   -0.20425E-08    48   0.760E-04    0.799E-05
DAV:   4    -0.367049477739E+02   -0.19327E-10   -0.13920E-08    48   0.368E-04    0.171E-05
DAV:   5    -0.367049477739E+02    0.34333E-10   -0.12549E-08    48   0.173E-04    0.164E-05
DAV:   6    -0.367049477739E+02   -0.44110E-10   -0.12116E-08    48   0.950E-05
  11 F= -.36704948E+02 E0= -.36704948E+02  d E =-.154507E-06
       N       E                     dE             d eps       ncg     rms          rms(c)
DAV:   1    -0.367049479783E+02   -0.20444E-06   -0.28636E-06    48   0.149E-02    0.322E-04
DAV:   2    -0.367049479917E+02   -0.13354E-07   -0.14399E-07    48   0.349E-03    0.215E-04
DAV:   3    -0.367049479941E+02   -0.24743E-08   -0.26519E-08    48   0.101E-03    0.126E-04
DAV:   4    -0.367049479949E+02   -0.76147E-09   -0.15766E-08    48   0.528E-04    0.307E-05
DAV:   5    -0.367049479945E+02    0.38881E-09   -0.13077E-08    48   0.245E-04    0.276E-05
DAV:   6    -0.367049479944E+02    0.92541E-10   -0.12250E-08    48   0.130E-04
  12 F= -.36704948E+02 E0= -.36704948E+02  d E =-.220502E-06
       N       E                     dE             d eps       ncg     rms          rms(c)
DAV:   1    -0.367049482338E+02   -0.23929E-06   -0.48866E-06    48   0.196E-02    0.454E-04
DAV:   2    -0.367049482558E+02   -0.22049E-07   -0.23943E-07    48   0.460E-03    0.301E-04
DAV:   3    -0.367049482597E+02   -0.39022E-08   -0.37013E-08    48   0.134E-03    0.182E-04
DAV:   4    -0.367049482608E+02   -0.11016E-08   -0.19004E-08    48   0.735E-04    0.474E-05
DAV:   5    -0.367049482607E+02    0.17258E-09   -0.13943E-08    48   0.340E-04    0.405E-05
DAV:   6    -0.367049482602E+02    0.46748E-09   -0.12482E-08    48   0.176E-04
  13 F= -.36704948E+02 E0= -.36704948E+02  d E =-.265796E-06
       N       E                     dE             d eps       ncg     rms          rms(c)
DAV:   1    -0.367049485166E+02   -0.25588E-06   -0.75741E-06    48   0.243E-02    0.537E-04
DAV:   2    -0.367049485495E+02   -0.32951E-07   -0.36287E-07    48   0.570E-03    0.357E-04
DAV:   3    -0.367049485550E+02   -0.54719E-08   -0.50797E-08    48   0.165E-03    0.211E-04
DAV:   4    -0.367049485565E+02   -0.15586E-08   -0.22381E-08    48   0.877E-04    0.526E-05
DAV:   5    -0.367049485562E+02    0.30855E-09   -0.15084E-08    48   0.406E-04    0.464E-05
DAV:   6    -0.367049485560E+02    0.19031E-09   -0.12881E-08    48   0.214E-04
  14 F= -.36704949E+02 E0= -.36704949E+02  d E =-.295826E-06
       N       E                     dE             d eps       ncg     rms          rms(c)
DAV:   1    -0.367049488717E+02   -0.31545E-06   -0.11006E-05    48   0.290E-02    0.585E-04
DAV:   2    -0.367049489184E+02   -0.46690E-07   -0.51609E-07    48   0.681E-03    0.390E-04
DAV:   3    -0.367049489256E+02   -0.72046E-08   -0.67917E-08    48   0.195E-03    0.211E-04
DAV:   4    -0.367049489271E+02   -0.15439E-08   -0.25541E-08    48   0.955E-04    0.462E-05
DAV:   5    -0.367049489273E+02   -0.20077E-09   -0.16347E-08    48   0.448E-04    0.438E-05
DAV:   6    -0.367049489270E+02    0.33197E-09   -0.13308E-08    48   0.245E-04
  15 F= -.36704949E+02 E0= -.36704949E+02  d E =-.370950E-06
       N       E                     dE             d eps       ncg     rms          rms(c)
DAV:   1    -0.367049493444E+02   -0.41705E-06   -0.17002E-05    48   0.361E-02    0.731E-04
DAV:   2    -0.367049494128E+02   -0.68482E-07   -0.79165E-07    48   0.847E-03    0.488E-04
DAV:   3    -0.367049494219E+02   -0.90122E-08   -0.98725E-08    48   0.243E-03    0.266E-04
DAV:   4    -0.367049494228E+02   -0.98203E-09   -0.33092E-08    48   0.120E-03    0.592E-05
DAV:   5    -0.367049494234E+02   -0.55661E-09   -0.18779E-08    48   0.560E-04    0.560E-05
DAV:   6    -0.367049494233E+02    0.80263E-10   -0.14043E-08    48   0.306E-04
  16 F= -.36704949E+02 E0= -.36704949E+02  d E =-.496331E-06
       N       E                     dE             d eps       ncg     rms          rms(c)
DAV:   1    -0.367049498907E+02   -0.46731E-06   -0.27247E-05    48   0.459E-02    0.957E-04
DAV:   2    -0.367049499978E+02   -0.10712E-06   -0.12667E-06    48   0.108E-02    0.639E-04
DAV:   3    -0.367049500105E+02   -0.12687E-07   -0.15187E-07    48   0.310E-03    0.362E-04
DAV:   4    -0.367049500110E+02   -0.53660E-09   -0.47219E-08    48   0.157E-03    0.848E-05
DAV:   5    -0.367049500124E+02   -0.13754E-08   -0.22990E-08    48   0.734E-04    0.781E-05
DAV:   6    -0.367049500123E+02    0.16303E-09   -0.15281E-08    48   0.395E-04
  17 F= -.36704950E+02 E0= -.36704950E+02  d E =-.588944E-06
       N       E                     dE             d eps       ncg     rms          rms(c)
DAV:   1    -0.367049505315E+02   -0.51909E-06   -0.41152E-05    48   0.561E-02    0.113E-03
DAV:   2    -0.367049506991E+02   -0.16762E-06   -0.18960E-06    48   0.132E-02    0.752E-04
DAV:   3    -0.367049507228E+02   -0.23654E-07   -0.22129E-07    48   0.377E-03    0.403E-04
DAV:   4    -0.367049507259E+02   -0.31266E-08   -0.62434E-08    48   0.184E-03    0.881E-05
DAV:   5    -0.367049507271E+02   -0.11669E-08   -0.28289E-08    48   0.864E-04    0.837E-05
DAV:   6    -0.367049507267E+02    0.39904E-09   -0.17015E-08    48   0.474E-04
  18 F= -.36704951E+02 E0= -.36704951E+02  d E =-.714414E-06
       N       E                     dE             d eps       ncg     rms          rms(c)
DAV:   1    -0.367049513585E+02   -0.63140E-06   -0.63131E-05    48   0.696E-02    0.141E-03
DAV:   2    -0.367049516204E+02   -0.26192E-06   -0.29040E-06    48   0.163E-02    0.938E-04
DAV:   3    -0.367049516591E+02   -0.38736E-07   -0.33272E-07    48   0.467E-03    0.508E-04
DAV:   4    -0.367049516667E+02   -0.75538E-08   -0.89608E-08    48   0.229E-03    0.111E-04
DAV:   5    -0.367049516677E+02   -0.10534E-08   -0.36995E-08    48   0.107E-03    0.105E-04
DAV:   6    -0.367049516670E+02    0.68758E-09   -0.19699E-08    48   0.587E-04
  19 F= -.36704952E+02 E0= -.36704952E+02  d E =-.940375E-06
       N       E                     dE             d eps       ncg     rms          rms(c)
DAV:   1    -0.367049523025E+02   -0.63478E-06   -0.98782E-05    48   0.870E-02    0.176E-03
DAV:   2    -0.367049527111E+02   -0.40860E-06   -0.45367E-06    48   0.204E-02    0.118E-03
DAV:   3    -0.367049527704E+02   -0.59317E-07   -0.51384E-07    48   0.584E-03    0.638E-04
DAV:   4    -0.367049527822E+02   -0.11800E-07   -0.13371E-07    48   0.287E-03    0.140E-04
DAV:   5    -0.367049527839E+02   -0.16460E-08   -0.51242E-08    48   0.134E-03    0.132E-04
DAV:   6    -0.367049527827E+02    0.11739E-08   -0.24205E-08    48   0.734E-04
  20 F= -.36704953E+02 E0= -.36704953E+02  d E =-.111566E-05
       N       E                     dE             d eps       ncg     rms          rms(c)
DAV:   1    -0.367049540792E+02   -0.12954E-05   -0.15578E-04    96   0.107E-01    0.224E-03
DAV:   2    -0.367049541580E+02   -0.78789E-07   -0.18188E-06    48   0.104E-02    0.152E-03
DAV:   3    -0.367049541583E+02   -0.27876E-09   -0.22907E-07    48   0.394E-03    0.543E-04
DAV:   4    -0.367049541669E+02   -0.86079E-08   -0.73414E-08    48   0.191E-03    0.161E-04
DAV:   5    -0.367049541697E+02   -0.27601E-08   -0.27624E-08    48   0.881E-04    0.643E-05
DAV:   6    -0.367049541739E+02   -0.42724E-08   -0.17853E-08    48   0.440E-04
  21 F= -.36704954E+02 E0= -.36704954E+02  d E =-.139124E-05
       N       E                     dE             d eps       ncg     rms          rms(c)
DAV:   1    -0.367049557024E+02   -0.15328E-05   -0.24333E-04    96   0.134E-01    0.280E-03
DAV:   2    -0.367049558301E+02   -0.12771E-06   -0.28102E-06    48   0.129E-02    0.191E-03
DAV:   3    -0.367049558332E+02   -0.30174E-08   -0.34383E-07    48   0.490E-03    0.686E-04
DAV:   4    -0.367049558490E+02   -0.15884E-07   -0.10523E-07    48   0.238E-03    0.204E-04
DAV:   5    -0.367049558540E+02   -0.49456E-08   -0.34998E-08    48   0.109E-03    0.815E-05
DAV:   6    -0.367049558601E+02   -0.61581E-08   -0.20408E-08    48   0.535E-04
  22 F= -.36704956E+02 E0= -.36704956E+02  d E =-.168620E-05
       N       E                     dE             d eps       ncg     rms          rms(c)
DAV:   1    -0.367049577249E+02   -0.18709E-05   -0.37260E-04    96   0.166E-01    0.348E-03
DAV:   2    -0.367049579351E+02   -0.21016E-06   -0.43149E-06    48   0.160E-02    0.237E-03
DAV:   3    -0.367049579472E+02   -0.12148E-07   -0.52081E-07    48   0.607E-03    0.863E-04
DAV:   4    -0.367049579734E+02   -0.26133E-07   -0.15511E-07    48   0.297E-03    0.256E-04
DAV:   5    -0.367049579782E+02   -0.48565E-08   -0.46931E-08    48   0.135E-03    0.106E-04
DAV:   6    -0.367049579849E+02   -0.66925E-08   -0.24609E-08    48   0.661E-04
  23 F= -.36704958E+02 E0= -.36704958E+02  d E =-.212477E-05
       N       E                     dE             d eps       ncg     rms          rms(c)
DAV:   1    -0.367049601837E+02   -0.22055E-05   -0.56859E-04    96   0.204E-01    0.426E-03
DAV:   2    -0.367049605051E+02   -0.32136E-06   -0.65313E-06    48   0.196E-02    0.291E-03
DAV:   3    -0.367049605119E+02   -0.68593E-08   -0.77871E-07    48   0.744E-03    0.102E-03
DAV:   4    -0.367049605470E+02   -0.35060E-07   -0.22371E-07    48   0.357E-03    0.297E-04
DAV:   5    -0.367049605551E+02   -0.81379E-08   -0.64119E-08    48   0.163E-03    0.121E-04
DAV:   6    -0.367049605665E+02   -0.11345E-07   -0.31009E-08    48   0.805E-04
  24 F= -.36704961E+02 E0= -.36704961E+02  d E =-.258155E-05
       N       E                     dE             d eps       ncg     rms          rms(c)
DAV:   1    -0.367049631298E+02   -0.25747E-05   -0.85859E-04    96   0.251E-01    0.521E-03
DAV:   2    -0.367049636385E+02   -0.50872E-06   -0.98478E-06    48   0.241E-02    0.357E-03
DAV:   3    -0.367049636570E+02   -0.18423E-07   -0.11637E-06    48   0.911E-03    0.125E-03
DAV:   4    -0.367049637127E+02   -0.55787E-07   -0.32762E-07    48   0.436E-03    0.357E-04
DAV:   5    -0.367049637242E+02   -0.11433E-07   -0.89222E-08    48   0.199E-03    0.148E-04
DAV:   6    -0.367049637390E+02   -0.14789E-07   -0.39725E-08    48   0.982E-04
  25 F= -.36704964E+02 E0= -.36704964E+02  d E =-.317250E-05
       N       E                     dE             d eps       ncg     rms          rms(c)
DAV:   1    -0.367049666290E+02   -0.29049E-05   -0.12553E-03    96   0.303E-01    0.632E-03
DAV:   2    -0.367049673892E+02   -0.76015E-06   -0.14430E-05    48   0.292E-02    0.432E-03
DAV:   3    -0.367049674177E+02   -0.28541E-07   -0.16997E-06    48   0.110E-02    0.153E-03
DAV:   4    -0.367049675013E+02   -0.83608E-07   -0.47579E-07    48   0.530E-03    0.441E-04
DAV:   5    -0.367049675164E+02   -0.15089E-07   -0.12401E-07    48   0.242E-03    0.183E-04
DAV:   6    -0.367049675343E+02   -0.17855E-07   -0.51141E-08    48   0.119E-03
  26 F= -.36704968E+02 E0= -.36704968E+02  d E =-.379532E-05
       N       E                     dE             d eps       ncg     rms          rms(c)
DAV:   1    -0.367049700230E+02   -0.25065E-05   -0.17367E-03    96   0.358E-01    0.778E-03
DAV:   2    -0.367049709416E+02   -0.91861E-06   -0.20386E-05    48   0.352E-02    0.526E-03
DAV:   3    -0.367049708876E+02    0.53984E-07   -0.25099E-06    48   0.135E-02    0.205E-03
DAV:   4    -0.367049709967E+02   -0.10909E-06   -0.75577E-07    48   0.698E-03    0.648E-04
DAV:   5    -0.367049710268E+02   -0.30131E-07   -0.18219E-07    48   0.315E-03    0.258E-04
DAV:   6    -0.367049710573E+02   -0.30543E-07   -0.67979E-08    48   0.153E-03
  27 F= -.36704971E+02 E0= -.36704971E+02  d E =-.352306E-05
       N       E                     dE             d eps       ncg     rms          rms(c)
DAV:   1    -0.367049664911E+02    0.45357E-05   -0.27365E-03    96   0.458E-01    0.134E-02
DAV:   2    -0.367049664050E+02    0.86125E-07   -0.36463E-05    64   0.503E-02    0.816E-03
DAV:   3    -0.367049659582E+02    0.44683E-06   -0.55575E-06    64   0.212E-02    0.369E-03
DAV:   4    -0.367049662054E+02   -0.24717E-06   -0.23899E-06    64   0.132E-02    0.126E-03
DAV:   5    -0.367049662211E+02   -0.15738E-07   -0.44364E-07    48   0.578E-03    0.552E-04
DAV:   6    -0.367049662700E+02   -0.48870E-07   -0.13908E-07    48   0.270E-03
  28 F= -.36704966E+02 E0= -.36704966E+02  d E =0.478737E-05
       N       E                     dE             d eps       ncg     rms          rms(c)
DAV:   1    -0.367049788521E+02   -0.12631E-04   -0.55139E-04    96   0.208E-01    0.115E-02
DAV:   2    -0.367049769240E+02    0.19281E-05   -0.90398E-06    64   0.290E-02    0.546E-03
DAV:   3    -0.367049765398E+02    0.38418E-06   -0.25799E-06    64   0.148E-02    0.236E-03
DAV:   4    -0.367049766260E+02   -0.86195E-07   -0.10452E-06    64   0.878E-03    0.892E-04
DAV:   5    -0.367049766892E+02   -0.63220E-07   -0.17186E-07    48   0.376E-03    0.386E-04
DAV:   6    -0.367049767554E+02   -0.66119E-07   -0.61978E-08    80   0.198E-03
  29 F= -.36704977E+02 E0= -.36704977E+02  d E =-.104854E-04
       N       E                     dE             d eps       ncg     rms          rms(c)
DAV:   1    -0.367049770134E+02   -0.32420E-06   -0.14130E-06    48   0.108E-02    0.528E-04
DAV:   2    -0.367049770517E+02   -0.38257E-07   -0.87398E-08    48   0.268E-03    0.287E-04
DAV:   3    -0.367049770899E+02   -0.38159E-07   -0.21708E-08    48   0.833E-04    0.160E-04
DAV:   4    -0.367049771476E+02   -0.57753E-07   -0.17466E-08    48   0.562E-04    0.449E-05
DAV:   5    -0.367049771666E+02   -0.18971E-07   -0.14428E-08    48   0.258E-04    0.321E-05
DAV:   6    -0.367049771936E+02   -0.27065E-07   -0.13601E-08    48   0.128E-04
  30 F= -.36704977E+02 E0= -.36704977E+02  d E =-.438281E-06
       N       E                     dE             d eps       ncg     rms          rms(c)
DAV:   1    -0.367049774673E+02   -0.30077E-06   -0.40841E-06    48   0.183E-02    0.837E-04
DAV:   2    -0.367049774935E+02   -0.26162E-07   -0.20499E-07    48   0.435E-03    0.455E-04
DAV:   3    -0.367049775085E+02   -0.14958E-07   -0.31592E-08    48   0.131E-03    0.256E-04
DAV:   4    -0.367049775286E+02   -0.20156E-07   -0.23855E-08    48   0.982E-04    0.875E-05
DAV:   5    -0.367049775320E+02   -0.33488E-08   -0.14007E-08    48   0.435E-04    0.593E-05
DAV:   6    -0.367049775385E+02   -0.65822E-08   -0.12237E-08    48   0.212E-04
  31 F= -.36704978E+02 E0= -.36704978E+02  d E =-.344909E-06
       N       E                     dE             d eps       ncg     rms          rms(c)
DAV:   1    -0.367049775856E+02   -0.53663E-07   -0.51196E-06    48   0.206E-02    0.882E-04
DAV:   2    -0.367049776063E+02   -0.20684E-07   -0.25533E-07    48   0.490E-03    0.493E-04
DAV:   3    -0.367049776110E+02   -0.46680E-08   -0.36344E-08    48   0.147E-03    0.280E-04
DAV:   4    -0.367049776171E+02   -0.60729E-08   -0.25794E-08    48   0.108E-03    0.945E-05
DAV:   5    -0.367049776170E+02    0.38426E-10   -0.14309E-08    48   0.477E-04    0.662E-05
DAV:   6    -0.367049776181E+02   -0.11134E-08   -0.12378E-08    48   0.236E-04
  32 F= -.36704978E+02 E0= -.36704978E+02  d E =-.795809E-07
       N       E                     dE             d eps       ncg     rms          rms(c)
DAV:   1    -0.367049776335E+02   -0.16442E-07   -0.26446E-08    48   0.112E-03    0.397E-05
DAV:   2    -0.367049776342E+02   -0.71759E-09   -0.12463E-08    48   0.273E-04    0.232E-05
DAV:   3    -0.367049776349E+02   -0.70304E-09   -0.11775E-08    48   0.855E-05    0.141E-05
DAV:   4    -0.367049776365E+02   -0.15750E-08   -0.11767E-08    48   0.470E-05    0.349E-06
DAV:   5    -0.367049776372E+02   -0.73237E-09   -0.11766E-08    48   0.228E-05    0.263E-06
DAV:   6    -0.367049776378E+02   -0.61914E-09   -0.11807E-08    48   0.129E-05
  33 F= -.36704978E+02 E0= -.36704978E+02  d E =-.196759E-07
       N       E                     dE             d eps       ncg     rms          rms(c)
DAV:   1    -0.367049776642E+02   -0.26996E-07   -0.67911E-08    48   0.216E-03    0.809E-05
DAV:   2    -0.367049776637E+02    0.49249E-09   -0.14511E-08    48   0.511E-04    0.474E-05
DAV:   3    -0.367049776635E+02    0.19600E-09   -0.12106E-08    48   0.153E-04    0.277E-05
DAV:   4    -0.367049776637E+02   -0.24147E-09   -0.11992E-08    48   0.104E-04    0.883E-06
DAV:   5    -0.367049776639E+02   -0.21214E-09   -0.11886E-08    48   0.463E-05    0.649E-06
DAV:   6    -0.367049776641E+02   -0.17826E-09   -0.11889E-08    48   0.230E-05
  34 F= -.36704978E+02 E0= -.36704978E+02  d E =-.263200E-07
       N       E                     dE             d eps       ncg     rms          rms(c)
DAV:   1    -0.367049776975E+02   -0.33523E-07   -0.12724E-07    48   0.309E-03    0.113E-04
DAV:   2    -0.367049776967E+02    0.81013E-09   -0.17424E-08    48   0.731E-04    0.668E-05
DAV:   3    -0.367049776964E+02    0.30718E-09   -0.12434E-08    48   0.219E-04    0.391E-05
DAV:   4    -0.367049776959E+02    0.45361E-09   -0.12124E-08    48   0.147E-04    0.125E-05
DAV:   5    -0.367049776963E+02   -0.36607E-09   -0.11943E-08    48   0.655E-05    0.921E-06
DAV:   6    -0.367049776963E+02   -0.28876E-10   -0.11892E-08    48   0.326E-05
  35 F= -.36704978E+02 E0= -.36704978E+02  d E =-.321687E-07
       N       E                     dE             d eps       ncg     rms          rms(c)
DAV:   1    -0.367049777332E+02   -0.36959E-07   -0.19298E-07    48   0.386E-03    0.135E-04
DAV:   2    -0.367049777325E+02    0.69758E-09   -0.20541E-08    48   0.913E-04    0.812E-05
DAV:   3    -0.367049777318E+02    0.77375E-09   -0.12781E-08    48   0.273E-04    0.480E-05
DAV:   4    -0.367049777314E+02    0.32014E-09   -0.12264E-08    48   0.180E-04    0.152E-05
DAV:   5    -0.367049777316E+02   -0.12074E-09   -0.11952E-08    48   0.805E-05    0.113E-05
DAV:   6    -0.367049777317E+02   -0.14779E-09   -0.11893E-08    48   0.400E-05
  36 F= -.36704978E+02 E0= -.36704978E+02  d E =-.354074E-07
       N       E                     dE             d eps       ncg     rms          rms(c)
DAV:   1    -0.367049777700E+02   -0.38440E-07   -0.25338E-07    48   0.444E-03    0.145E-04
DAV:   2    -0.367049777694E+02    0.55206E-09   -0.23456E-08    48   0.105E-03    0.891E-05
DAV:   3    -0.367049777687E+02    0.73032E-09   -0.13116E-08    48   0.312E-04    0.533E-05
DAV:   4    -0.367049777682E+02    0.47453E-09   -0.12356E-08    48   0.200E-04    0.167E-05
DAV:   5    -0.367049777685E+02   -0.26785E-09   -0.11966E-08    48   0.900E-05    0.125E-05
DAV:   6    -0.367049777686E+02   -0.78899E-10   -0.11865E-08    48   0.448E-05
  37 F= -.36704978E+02 E0= -.36704978E+02  d E =-.368823E-07
       N       E                     dE             d eps       ncg     rms          rms(c)
DAV:   1    -0.367049778078E+02   -0.39316E-07   -0.30062E-07    48   0.482E-03    0.142E-04
DAV:   2    -0.367049778076E+02    0.26625E-09   -0.25591E-08    48   0.114E-03    0.898E-05
DAV:   3    -0.367049778071E+02    0.50045E-09   -0.13343E-08    48   0.336E-04    0.545E-05
DAV:   4    -0.367049778065E+02    0.60118E-09   -0.12382E-08    48   0.206E-04    0.165E-05
DAV:   5    -0.367049778067E+02   -0.27262E-09   -0.11984E-08    48   0.935E-05    0.126E-05
DAV:   6    -0.367049778066E+02    0.88221E-10   -0.11899E-08    48   0.466E-05
  38 F= -.36704978E+02 E0= -.36704978E+02  d E =-.380534E-07
       N       E                     dE             d eps       ncg     rms          rms(c)
DAV:   1    -0.367049778538E+02   -0.47117E-07   -0.41214E-07    48   0.560E-03    0.143E-04
DAV:   2    -0.367049778541E+02   -0.21896E-09   -0.30665E-08    48   0.132E-03    0.936E-05
DAV:   3    -0.367049778537E+02    0.39131E-09   -0.13892E-08    48   0.385E-04    0.570E-05
DAV:   4    -0.367049778532E+02    0.42905E-09   -0.12470E-08    48   0.220E-04    0.160E-05
DAV:   5    -0.367049778535E+02   -0.23670E-09   -0.12038E-08    48   0.101E-04    0.128E-05
DAV:   6    -0.367049778534E+02    0.30241E-10   -0.11903E-08    48   0.508E-05
  39 F= -.36704978E+02 E0= -.36704978E+02  d E =-.468099E-07
       N       E                     dE             d eps       ncg     rms          rms(c)
DAV:   1    -0.367049779150E+02   -0.61490E-07   -0.57009E-07    48   0.650E-03    0.144E-04
DAV:   2    -0.367049779165E+02   -0.15755E-08   -0.37665E-08    48   0.153E-03    0.957E-05
DAV:   3    -0.367049779163E+02    0.25193E-09   -0.14717E-08    48   0.440E-04    0.555E-05
DAV:   4    -0.367049779159E+02    0.35607E-09   -0.12616E-08    48   0.229E-04    0.137E-05
DAV:   5    -0.367049779161E+02   -0.18190E-09   -0.12061E-08    48   0.105E-04    0.121E-05
DAV:   6    -0.367049779161E+02    0.15689E-10   -0.11918E-08    48   0.550E-05
  40 F= -.36704978E+02 E0= -.36704978E+02  d E =-.626538E-07
       N       E                     dE             d eps       ncg     rms          rms(c)
DAV:   1    -0.367049780008E+02   -0.84655E-07   -0.83440E-07    48   0.782E-03    0.159E-04
DAV:   2    -0.367049780038E+02   -0.29886E-08   -0.49406E-08    48   0.184E-03    0.106E-04
DAV:   3    -0.367049780043E+02   -0.52887E-09   -0.16000E-08    48   0.524E-04    0.563E-05
DAV:   4    -0.367049780040E+02    0.30536E-09   -0.12862E-08    48   0.253E-04    0.122E-05
DAV:   5    -0.367049780044E+02   -0.38131E-09   -0.12142E-08    48   0.117E-04    0.116E-05
DAV:   6    -0.367049780044E+02   -0.23419E-10   -0.11957E-08    48   0.642E-05
  41 F= -.36704978E+02 E0= -.36704978E+02  d E =-.882878E-07
       N       E                     dE             d eps       ncg     rms          rms(c)
DAV:   1    -0.367049781190E+02   -0.11463E-06   -0.13051E-06    48   0.983E-03    0.202E-04
DAV:   2    -0.367049781246E+02   -0.56216E-08   -0.70957E-08    48   0.232E-03    0.135E-04
DAV:   3    -0.367049781256E+02   -0.99772E-09   -0.18434E-08    48   0.661E-04    0.731E-05
DAV:   4    -0.367049781258E+02   -0.13415E-09   -0.13457E-08    48   0.324E-04    0.161E-05
DAV:   5    -0.367049781259E+02   -0.97998E-10   -0.12385E-08    48   0.150E-04    0.152E-05
DAV:   6    -0.367049781258E+02    0.90495E-10   -0.12051E-08    48   0.822E-05
  42 F= -.36704978E+02 E0= -.36704978E+02  d E =-.121371E-06
       N       E                     dE             d eps       ncg     rms          rms(c)
DAV:   1    -0.367049782729E+02   -0.14701E-06   -0.21073E-06    48   0.126E-02    0.268E-04
DAV:   2    -0.367049782824E+02   -0.95374E-08   -0.10821E-07    48   0.297E-03    0.179E-04
DAV:   3    -0.367049782840E+02   -0.15639E-08   -0.22594E-08    48   0.853E-04    0.102E-04
DAV:   4    -0.367049782846E+02   -0.64915E-09   -0.14598E-08    48   0.435E-04    0.239E-05
DAV:   5    -0.367049782844E+02    0.18167E-09   -0.12724E-08    48   0.202E-04    0.219E-05
DAV:   6    -0.367049782841E+02    0.30809E-09   -0.12129E-08    48   0.108E-04
  43 F= -.36704978E+02 E0= -.36704978E+02  d E =-.158365E-06
       N       E                     dE             d eps       ncg     rms          rms(c)
DAV:   1    -0.367049784627E+02   -0.17828E-06   -0.33663E-06    48   0.160E-02    0.342E-04
DAV:   2    -0.367049784776E+02   -0.14916E-07   -0.16626E-07    48   0.376E-03    0.229E-04
DAV:   3    -0.367049784803E+02   -0.26216E-08   -0.29062E-08    48   0.108E-03    0.131E-04
DAV:   4    -0.367049784810E+02   -0.79444E-09   -0.16280E-08    48   0.556E-04    0.309E-05
DAV:   5    -0.367049784808E+02    0.27239E-09   -0.13196E-08    48   0.258E-04    0.282E-05
DAV:   6    -0.367049784805E+02    0.25238E-09   -0.12235E-08    48   0.138E-04
  44 F= -.36704978E+02 E0= -.36704978E+02  d E =-.196396E-06
       N       E                     dE             d eps       ncg     rms          rms(c)
DAV:   1    -0.367049786960E+02   -0.21522E-06   -0.52700E-06    48   0.200E-02    0.414E-04
DAV:   2    -0.367049787189E+02   -0.22893E-07   -0.25289E-07    48   0.470E-03    0.276E-04
DAV:   3    -0.367049787224E+02   -0.35584E-08   -0.38614E-08    48   0.135E-03    0.153E-04
DAV:   4    -0.367049787233E+02   -0.85447E-09   -0.18529E-08    48   0.671E-04    0.345E-05
DAV:   5    -0.367049787230E+02    0.34584E-09   -0.13941E-08    48   0.312E-04    0.321E-05
DAV:   6    -0.367049787230E+02   -0.51386E-10   -0.12523E-08    48   0.169E-04
  45 F= -.36704979E+02 E0= -.36704979E+02  d E =-.242487E-06
       N       E                     dE             d eps       ncg     rms          rms(c)
DAV:   1    -0.367049789944E+02   -0.27140E-06   -0.84196E-06    48   0.253E-02    0.507E-04
DAV:   2    -0.367049790292E+02   -0.34818E-07   -0.39577E-07    48   0.592E-03    0.338E-04
DAV:   3    -0.367049790341E+02   -0.49536E-08   -0.54346E-08    48   0.169E-03    0.180E-04
DAV:   4    -0.367049790349E+02   -0.79444E-09   -0.22068E-08    48   0.820E-04    0.386E-05
DAV:   5    -0.367049790351E+02   -0.13461E-09   -0.15158E-08    48   0.384E-04    0.365E-05
DAV:   6    -0.367049790349E+02    0.15530E-09   -0.12900E-08    48   0.211E-04
  46 F= -.36704979E+02 E0= -.36704979E+02  d E =-.311898E-06
       N       E                     dE             d eps       ncg     rms          rms(c)
DAV:   1    -0.367049793747E+02   -0.33968E-06   -0.13769E-05    48   0.324E-02    0.652E-04
DAV:   2    -0.367049794302E+02   -0.55437E-07   -0.64058E-07    48   0.759E-03    0.435E-04
DAV:   3    -0.367049794374E+02   -0.72500E-08   -0.81663E-08    48   0.217E-03    0.232E-04
DAV:   4    -0.367049794380E+02   -0.60777E-09   -0.28659E-08    48   0.106E-03    0.507E-05
DAV:   5    -0.367049794384E+02   -0.40041E-09   -0.17299E-08    48   0.496E-04    0.480E-05
DAV:   6    -0.367049794384E+02    0.32514E-10   -0.13533E-08    48   0.272E-04
  47 F= -.36704979E+02 E0= -.36704979E+02  d E =-.403495E-06
       N       E                     dE             d eps       ncg     rms          rms(c)
DAV:   1    -0.367049798349E+02   -0.39642E-06   -0.22518E-05    48   0.415E-02    0.843E-04
DAV:   2    -0.367049799251E+02   -0.90252E-07   -0.10421E-06    48   0.972E-03    0.562E-04
DAV:   3    -0.367049799367E+02   -0.11598E-07   -0.12636E-07    48   0.279E-03    0.304E-04
DAV:   4    -0.367049799375E+02   -0.76443E-09   -0.39727E-08    48   0.137E-03    0.678E-05
DAV:   5    -0.367049799384E+02   -0.93110E-09   -0.20832E-08    48   0.643E-04    0.638E-05
DAV:   6    -0.367049799382E+02    0.15552E-09   -0.14634E-08    48   0.351E-04
  48 F= -.36704980E+02 E0= -.36704980E+02  d E =-.499843E-06
       N       E                     dE             d eps       ncg     rms          rms(c)
DAV:   1    -0.367049803876E+02   -0.44921E-06   -0.35865E-05    48   0.524E-02    0.105E-03
DAV:   2    -0.367049805336E+02   -0.14594E-06   -0.16509E-06    48   0.123E-02    0.702E-04
DAV:   3    -0.367049805536E+02   -0.20000E-07   -0.19389E-07    48   0.351E-03    0.373E-04
DAV:   4    -0.367049805563E+02   -0.27210E-08   -0.55602E-08    48   0.171E-03    0.812E-05
DAV:   5    -0.367049805571E+02   -0.81627E-09   -0.26095E-08    48   0.804E-04    0.769E-05
DAV:   6    -0.367049805568E+02    0.29945E-09   -0.16305E-08    48   0.442E-04
  49 F= -.36704981E+02 E0= -.36704981E+02  d E =-.618549E-06
       N       E                     dE             d eps       ncg     rms          rms(c)
DAV:   1    -0.367049810729E+02   -0.51584E-06   -0.56385E-05    48   0.657E-02    0.132E-03
DAV:   2    -0.367049813050E+02   -0.23211E-06   -0.25881E-06    48   0.154E-02    0.878E-04
DAV:   3    -0.367049813389E+02   -0.33818E-07   -0.29762E-07    48   0.440E-03    0.466E-04
DAV:   4    -0.367049813448E+02   -0.59517E-08   -0.80320E-08    48   0.214E-03    0.100E-04
DAV:   5    -0.367049813457E+02   -0.90222E-09   -0.34231E-08    48   0.100E-03    0.946E-05
DAV:   6    -0.367049813451E+02    0.61800E-09   -0.18887E-08    48   0.553E-04
  50 F= -.36704981E+02 E0= -.36704981E+02  d E =-.788309E-06
       N       E                     dE             d eps       ncg     rms          rms(c)
DAV:   1    -0.367049818842E+02   -0.53844E-06   -0.88071E-05    48   0.822E-02    0.165E-03
DAV:   2    -0.367049822480E+02   -0.36382E-06   -0.40391E-06    48   0.193E-02    0.110E-03
DAV:   3    -0.367049823005E+02   -0.52530E-07   -0.45876E-07    48   0.551E-03    0.590E-04
DAV:   4    -0.367049823104E+02   -0.99103E-08   -0.11940E-07    48   0.268E-03    0.128E-04
DAV:   5    -0.367049823118E+02   -0.14197E-08   -0.46811E-08    48   0.126E-03    0.120E-04
DAV:   6    -0.367049823109E+02    0.95611E-09   -0.22882E-08    48   0.692E-04
  51 F= -.36704982E+02 E0= -.36704982E+02  d E =-.965778E-06
       N       E                     dE             d eps       ncg     rms          rms(c)
DAV:   1    -0.367049832577E+02   -0.94588E-06   -0.13776E-04    88   0.101E-01    0.206E-03
DAV:   2    -0.367049834525E+02   -0.19475E-06   -0.27549E-06    48   0.133E-02    0.141E-03
DAV:   3    -0.367049834738E+02   -0.21373E-07   -0.31347E-07    48   0.443E-03    0.500E-04
DAV:   4    -0.367049834824E+02   -0.86134E-08   -0.91754E-08    48   0.213E-03    0.139E-04
DAV:   5    -0.367049834841E+02   -0.16155E-08   -0.35440E-08    48   0.999E-04    0.546E-05
DAV:   6    -0.367049834863E+02   -0.22703E-08   -0.20285E-08    48   0.519E-04
  52 F= -.36704983E+02 E0= -.36704983E+02  d E =-.117545E-05
       N       E                     dE             d eps       ncg     rms          rms(c)
DAV:   1    -0.367049847846E+02   -0.13005E-05   -0.20951E-04    96   0.124E-01    0.259E-03
DAV:   2    -0.367049848985E+02   -0.11393E-06   -0.24243E-06    48   0.120E-02    0.177E-03
DAV:   3    -0.367049849023E+02   -0.38183E-08   -0.29891E-07    48   0.455E-03    0.631E-04
DAV:   4    -0.367049849164E+02   -0.14041E-07   -0.92475E-08    48   0.220E-03    0.185E-04
DAV:   5    -0.367049849201E+02   -0.37464E-08   -0.32183E-08    48   0.101E-03    0.742E-05
DAV:   6    -0.367049849255E+02   -0.53731E-08   -0.19486E-08    48   0.500E-04
  53 F= -.36704985E+02 E0= -.36704985E+02  d E =-.143917E-05
       N       E                     dE             d eps       ncg     rms          rms(c)
DAV:   1    -0.367049864571E+02   -0.15369E-05   -0.30722E-04    96   0.150E-01    0.312E-03
DAV:   2    -0.367049866337E+02   -0.17662E-06   -0.35371E-06    48   0.144E-02    0.214E-03
DAV:   3    -0.367049866432E+02   -0.95131E-08   -0.42511E-07    48   0.545E-03    0.754E-04
DAV:   4    -0.367049866638E+02   -0.20598E-07   -0.12635E-07    48   0.262E-03    0.216E-04
DAV:   5    -0.367049866675E+02   -0.37498E-08   -0.40570E-08    48   0.120E-03    0.903E-05
DAV:   6    -0.367049866739E+02   -0.63585E-08   -0.22564E-08    48   0.588E-04
  54 F= -.36704987E+02 E0= -.36704987E+02  d E =-.174838E-05
       N       E                     dE             d eps       ncg     rms          rms(c)
DAV:   1    -0.367049884366E+02   -0.17690E-05   -0.44574E-04    96   0.181E-01    0.376E-03
DAV:   2    -0.367049886960E+02   -0.25944E-06   -0.51224E-06    48   0.174E-02    0.257E-03
DAV:   3    -0.367049887067E+02   -0.10754E-07   -0.61026E-07    48   0.656E-03    0.905E-04
DAV:   4    -0.367049887359E+02   -0.29137E-07   -0.17730E-07    48   0.315E-03    0.258E-04
DAV:   5    -0.367049887422E+02   -0.62726E-08   -0.53105E-08    48   0.144E-03    0.108E-04
DAV:   6    -0.367049887506E+02   -0.84922E-08   -0.27187E-08    48   0.708E-04
  55 F= -.36704989E+02 E0= -.36704989E+02  d E =-.207676E-05
       N       E                     dE             d eps       ncg     rms          rms(c)
DAV:   1    -0.367049907445E+02   -0.20023E-05   -0.63249E-04    96   0.215E-01    0.449E-03
DAV:   2    -0.367049911064E+02   -0.36194E-06   -0.72738E-06    48   0.207E-02    0.307E-03
DAV:   3    -0.367049911123E+02   -0.59089E-08   -0.86797E-07    48   0.786E-03    0.110E-03
DAV:   4    -0.367049911530E+02   -0.40630E-07   -0.25053E-07    48   0.381E-03    0.319E-04
DAV:   5    -0.367049911629E+02   -0.99128E-08   -0.70599E-08    48   0.173E-03    0.129E-04
DAV:   6    -0.367049911751E+02   -0.12163E-07   -0.33149E-08    48   0.856E-04
  56 F= -.36704991E+02 E0= -.36704991E+02  d E =-.242440E-05
       N       E                     dE             d eps       ncg     rms          rms(c)
DAV:   1    -0.367049932879E+02   -0.21251E-05   -0.87099E-04    96   0.253E-01    0.537E-03
DAV:   2    -0.367049937920E+02   -0.50404E-06   -0.10109E-05    48   0.245E-02    0.365E-03
DAV:   3    -0.367049938066E+02   -0.14611E-07   -0.12124E-06    48   0.932E-03    0.136E-03
DAV:   4    -0.367049938684E+02   -0.61788E-07   -0.35448E-07    48   0.462E-03    0.411E-04
DAV:   5    -0.367049938800E+02   -0.11579E-07   -0.93755E-08    48   0.210E-03    0.170E-04
DAV:   6    -0.367049938943E+02   -0.14365E-07   -0.40536E-08    48   0.102E-03
  57 F= -.36704994E+02 E0= -.36704994E+02  d E =-.271928E-05
       N       E                     dE             d eps       ncg     rms          rms(c)
DAV:   1    -0.367049956853E+02   -0.18053E-05   -0.11712E-03    96   0.295E-01    0.672E-03
DAV:   2    -0.367049961915E+02   -0.50627E-06   -0.14003E-05    48   0.295E-02    0.447E-03
DAV:   3    -0.367049961106E+02    0.80916E-07   -0.18002E-06    48   0.116E-02    0.184E-03
DAV:   4    -0.367049961791E+02   -0.68513E-07   -0.59099E-07    48   0.627E-03    0.603E-04
DAV:   5    -0.367049962039E+02   -0.24741E-07   -0.13963E-07    48   0.281E-03    0.248E-04
DAV:   6    -0.367049962284E+02   -0.24546E-07   -0.53381E-08    48   0.135E-03
  58 F= -.36704996E+02 E0= -.36704996E+02  d E =-.233410E-05
       N       E                     dE             d eps       ncg     rms          rms(c)
DAV:   1    -0.367049955697E+02    0.63417E-06   -0.17718E-03    96   0.369E-01    0.105E-02
DAV:   2    -0.367049956373E+02   -0.67611E-07   -0.23424E-05    64   0.402E-02    0.645E-03
DAV:   3    -0.367049953877E+02    0.24959E-06   -0.35111E-06    64   0.168E-02    0.294E-03
DAV:   4    -0.367049955513E+02   -0.16357E-06   -0.14850E-06    64   0.104E-02    0.100E-03
DAV:   5    -0.367049955637E+02   -0.12412E-07   -0.28563E-07    48   0.456E-03    0.432E-04
DAV:   6    -0.367049955996E+02   -0.35935E-07   -0.92974E-08    48   0.212E-03
  59 F= -.36704996E+02 E0= -.36704996E+02  d E =0.628777E-06
       N       E                     dE             d eps       ncg     rms          rms(c)
DAV:   1    -0.367050016932E+02   -0.61295E-05   -0.19690E-04    80   0.124E-01    0.683E-03
DAV:   2    -0.367050009924E+02    0.70077E-06   -0.32423E-06    64   0.174E-02    0.326E-03
DAV:   3    -0.367050008660E+02    0.12641E-06   -0.92765E-07    64   0.881E-03    0.141E-03
DAV:   4    -0.367050009187E+02   -0.52669E-07   -0.38437E-07    48   0.525E-03    0.532E-04
DAV:   5    -0.367050009643E+02   -0.45661E-07   -0.71527E-08    48   0.225E-03    0.230E-04
DAV:   6    -0.367050010146E+02   -0.50267E-07   -0.31507E-08    48   0.119E-03
  60 F= -.36705001E+02 E0= -.36705001E+02  d E =-.541494E-05
       N       E                     dE             d eps       ncg     rms          rms(c)
DAV:   1    -0.367050010548E+02   -0.90491E-07   -0.84280E-08    48   0.241E-03    0.100E-04
DAV:   2    -0.367050010780E+02   -0.23140E-07   -0.18526E-08    48   0.663E-04    0.679E-05
DAV:   3    -0.367050011123E+02   -0.34333E-07   -0.14606E-08    48   0.252E-04    0.289E-05
DAV:   4    -0.367050011441E+02   -0.31838E-07   -0.13723E-08    48   0.143E-04    0.116E-05
DAV:   5    -0.367050011734E+02   -0.29312E-07   -0.13168E-08    48   0.104E-04    0.675E-06
DAV:   6    -0.367050012012E+02   -0.27804E-07   -0.12503E-08    48   0.862E-05
  61 F= -.36705001E+02 E0= -.36705001E+02  d E =-.186652E-06
       N       E                     dE             d eps       ncg     rms          rms(c)
DAV:   1    -0.367050012798E+02   -0.10631E-06   -0.33575E-07    52   0.509E-03    0.109E-04
DAV:   2    -0.367050012861E+02   -0.63733E-08   -0.26864E-08    48   0.120E-03    0.725E-05
DAV:   3    -0.367050012911E+02   -0.50011E-08   -0.13304E-08    48   0.348E-04    0.429E-05
DAV:   4    -0.367050012980E+02   -0.69001E-08   -0.12026E-08    48   0.183E-04    0.103E-05
DAV:   5    -0.367050013001E+02   -0.20850E-08   -0.11729E-08    48   0.864E-05    0.927E-06
DAV:   6    -0.367050013023E+02   -0.22145E-08   -0.11602E-08    48   0.482E-05
  62 F= -.36705001E+02 E0= -.36705001E+02  d E =-.101083E-06
       N       E                     dE             d eps       ncg     rms          rms(c)
DAV:   1    -0.367050013846E+02   -0.84447E-07   -0.77778E-07    48   0.780E-03    0.161E-04
DAV:   2    -0.367050013892E+02   -0.46505E-08   -0.47129E-08    48   0.183E-03    0.107E-04
DAV:   3    -0.367050013909E+02   -0.16703E-08   -0.15578E-08    48   0.529E-04    0.613E-05
DAV:   4    -0.367050013922E+02   -0.13713E-08   -0.12685E-08    48   0.267E-04    0.138E-05
DAV:   5    -0.367050013926E+02   -0.32901E-09   -0.12008E-08    48   0.125E-04    0.129E-05
DAV:   6    -0.367050013929E+02   -0.32560E-09   -0.11821E-08    48   0.681E-05
  63 F= -.36705001E+02 E0= -.36705001E+02  d E =-.905791E-07
       N       E                     dE             d eps       ncg     rms          rms(c)
DAV:   1    -0.367050014970E+02   -0.10442E-06   -0.14027E-06    48   0.105E-02    0.209E-04
DAV:   2    -0.367050015032E+02   -0.61780E-08   -0.76074E-08    48   0.246E-03    0.140E-04
DAV:   3    -0.367050015046E+02   -0.13849E-08   -0.18928E-08    48   0.708E-04    0.769E-05
DAV:   4    -0.367050015049E+02   -0.33197E-09   -0.13523E-08    48   0.349E-04    0.168E-05
DAV:   5    -0.367050015048E+02    0.44338E-10   -0.12362E-08    48   0.164E-04    0.159E-05
DAV:   6    -0.367050015050E+02   -0.11619E-09   -0.11982E-08    48   0.907E-05
  64 F= -.36705002E+02 E0= -.36705002E+02  d E =-.112062E-06
       N       E                     dE             d eps       ncg     rms          rms(c)
DAV:   1    -0.367050016332E+02   -0.12832E-06   -0.22094E-06    48   0.131E-02    0.259E-04
DAV:   2    -0.367050016425E+02   -0.92923E-08   -0.11326E-07    48   0.309E-03    0.173E-04
DAV:   3    -0.367050016437E+02   -0.12028E-08   -0.23142E-08    48   0.888E-04    0.927E-05
DAV:   4    -0.367050016438E+02   -0.12187E-09   -0.14543E-08    48   0.431E-04    0.200E-05
DAV:   5    -0.367050016439E+02   -0.11414E-09   -0.12742E-08    48   0.204E-04    0.191E-05
DAV:   6    -0.367050016439E+02   -0.20464E-10   -0.12085E-08    48   0.114E-04
  65 F= -.36705002E+02 E0= -.36705002E+02  d E =-.138953E-06
       N       E                     dE             d eps       ncg     rms          rms(c)
DAV:   1    -0.367050017962E+02   -0.15232E-06   -0.32039E-06    48   0.158E-02    0.312E-04
DAV:   2    -0.367050018095E+02   -0.13293E-07   -0.15924E-07    48   0.372E-03    0.208E-04
DAV:   3    -0.367050018111E+02   -0.16344E-08   -0.28370E-08    48   0.107E-03    0.111E-04
DAV:   4    -0.367050018110E+02    0.16462E-09   -0.15832E-08    48   0.519E-04    0.242E-05
DAV:   5    -0.367050018114E+02   -0.38699E-09   -0.13188E-08    48   0.246E-04    0.232E-05
DAV:   6    -0.367050018113E+02    0.97543E-10   -0.12266E-08    48   0.137E-04
  66 F= -.36705002E+02 E0= -.36705002E+02  d E =-.167351E-06
       N       E                     dE             d eps       ncg     rms          rms(c)
DAV:   1    -0.367050020029E+02   -0.19151E-06   -0.54499E-06    48   0.206E-02    0.409E-04
DAV:   2    -0.367050020250E+02   -0.22167E-07   -0.26284E-07    48   0.485E-03    0.273E-04
DAV:   3    -0.367050020276E+02   -0.25998E-08   -0.39944E-08    48   0.140E-03    0.146E-04
DAV:   4    -0.367050020278E+02   -0.15439E-09   -0.18653E-08    48   0.679E-04    0.322E-05
DAV:   5    -0.367050020280E+02   -0.22442E-09   -0.14072E-08    48   0.321E-04    0.307E-05
DAV:   6    -0.367050020280E+02   -0.34106E-11   -0.12541E-08    48   0.178E-04
  67 F= -.36705002E+02 E0= -.36705002E+02  d E =-.216753E-06
       N       E                     dE             d eps       ncg     rms          rms(c)
DAV:   1    -0.367050022622E+02   -0.23417E-06   -0.89991E-06    48   0.265E-02    0.526E-04
DAV:   2    -0.367050022991E+02   -0.36878E-07   -0.42651E-07    48   0.624E-03    0.350E-04
DAV:   3    -0.367050023039E+02   -0.48078E-08   -0.58251E-08    48   0.179E-03    0.188E-04
DAV:   4    -0.367050023040E+02   -0.12710E-09   -0.23053E-08    48   0.873E-04    0.413E-05
DAV:   5    -0.367050023044E+02   -0.40495E-09   -0.15543E-08    48   0.413E-04    0.394E-05
DAV:   6    -0.367050023043E+02    0.59572E-10   -0.12958E-08    48   0.229E-04
  68 F= -.36705002E+02 E0= -.36705002E+02  d E =-.276327E-06
       N       E                     dE             d eps       ncg     rms          rms(c)
DAV:   1    -0.367050025856E+02   -0.28124E-06   -0.14474E-05    48   0.336E-02    0.665E-04
DAV:   2    -0.367050026458E+02   -0.60123E-07   -0.67871E-07    48   0.791E-03    0.443E-04
DAV:   3    -0.367050026540E+02   -0.82284E-08   -0.86446E-08    48   0.227E-03    0.236E-04
DAV:   4    -0.367050026546E+02   -0.59435E-09   -0.29794E-08    48   0.110E-03    0.514E-05
DAV:   5    -0.367050026550E+02   -0.36334E-09   -0.17729E-08    48   0.521E-04    0.490E-05
DAV:   6    -0.367050026547E+02    0.26807E-09   -0.13722E-08    48   0.290E-04
  69 F= -.36705003E+02 E0= -.36705003E+02  d E =-.350341E-06
       N       E                     dE             d eps       ncg     rms          rms(c)
DAV:   1    -0.367050029862E+02   -0.33120E-06   -0.22843E-05    48   0.422E-02    0.835E-04
DAV:   2    -0.367050030821E+02   -0.95902E-07   -0.10643E-06    48   0.993E-03    0.557E-04
DAV:   3    -0.367050030954E+02   -0.13383E-07   -0.12950E-07    48   0.285E-03    0.297E-04
DAV:   4    -0.367050030974E+02   -0.19393E-08   -0.40131E-08    48   0.138E-03    0.643E-05
DAV:   5    -0.367050030978E+02   -0.45748E-09   -0.21133E-08    48   0.654E-04    0.613E-05
DAV:   6    -0.367050030975E+02    0.34561E-09   -0.14778E-08    48   0.364E-04
  70 F= -.36705003E+02 E0= -.36705003E+02  d E =-.442805E-06
       N       E                     dE             d eps       ncg     rms          rms(c)
DAV:   1    -0.367050034742E+02   -0.37635E-06   -0.35462E-05    48   0.526E-02    0.104E-03
DAV:   2    -0.367050036231E+02   -0.14887E-06   -0.16457E-06    48   0.124E-02    0.696E-04
DAV:   3    -0.367050036444E+02   -0.21351E-07   -0.19445E-07    48   0.355E-03    0.371E-04
DAV:   4    -0.367050036477E+02   -0.32765E-08   -0.55798E-08    48   0.173E-03    0.805E-05
DAV:   5    -0.367050036485E+02   -0.76875E-09   -0.26271E-08    48   0.815E-04    0.765E-05
DAV:   6    -0.367050036479E+02    0.56843E-09   -0.16430E-08    48   0.454E-04
  71 F= -.36705004E+02 E0= -.36705004E+02  d E =-.550402E-06
       N       E                     dE             d eps       ncg     rms          rms(c)
DAV:   1    -0.367050040615E+02   -0.41303E-06   -0.54004E-05    48   0.649E-02    0.129E-03
DAV:   2    -0.367050042870E+02   -0.22547E-06   -0.24984E-06    48   0.152E-02    0.858E-04
DAV:   3    -0.367050043190E+02   -0.32042E-07   -0.28977E-07    48   0.438E-03    0.456E-04
DAV:   4    -0.367050043244E+02   -0.54363E-08   -0.78701E-08    48   0.212E-03    0.988E-05
DAV:   5    -0.367050043255E+02   -0.10168E-08   -0.33844E-08    48   0.100E-03    0.940E-05
DAV:   6    -0.367050043248E+02    0.64392E-09   -0.18827E-08    48   0.559E-04
  72 F= -.36705004E+02 E0= -.36705004E+02  d E =-.676921E-06
       N       E                     dE             d eps       ncg     rms          rms(c)
DAV:   1    -0.367050047602E+02   -0.43471E-06   -0.81000E-05    48   0.794E-02    0.158E-03
DAV:   2    -0.367050050977E+02   -0.33753E-06   -0.37401E-06    48   0.187E-02    0.105E-03
DAV:   3    -0.367050051451E+02   -0.47349E-07   -0.42877E-07    48   0.536E-03    0.559E-04
DAV:   4    -0.367050051526E+02   -0.75800E-08   -0.11220E-07    48   0.260E-03    0.121E-04
DAV:   5    -0.367050051546E+02   -0.19318E-08   -0.44874E-08    48   0.123E-03    0.116E-04
DAV:   6    -0.367050051538E+02    0.79785E-09   -0.22345E-08    48   0.684E-04
  73 F= -.36705005E+02 E0= -.36705005E+02  d E =-.828952E-06
       N       E                     dE             d eps       ncg     rms          rms(c)
DAV:   1    -0.367050055766E+02   -0.42206E-06   -0.11959E-04    48   0.964E-02    0.191E-03
DAV:   2    -0.367050060767E+02   -0.50012E-06   -0.55129E-06    48   0.227E-02    0.128E-03
DAV:   3    -0.367050061465E+02   -0.69706E-07   -0.62653E-07    48   0.650E-03    0.678E-04
DAV:   4    -0.367050061583E+02   -0.11874E-07   -0.15971E-07    48   0.315E-03    0.147E-04
DAV:   5    -0.367050061612E+02   -0.28567E-08   -0.60526E-08    48   0.149E-03    0.140E-04
DAV:   6    -0.367050061600E+02    0.11371E-08   -0.27464E-08    48   0.828E-04
  74 F= -.36705006E+02 E0= -.36705006E+02  d E =-.100628E-05
