 vasp.5.4.1 24Jun15 (build Jan 13 2020 12:58:22) complex                        
  
 executed on           IFC91_ompi date 2020.02.05  18:18:08
 running on   15 total cores
 each image running on    1 cores
 distrk:  each k-point on    1 cores,    1 groups
 distr:  one band on NCORES_PER_BAND=   1 cores,    1 groups


--------------------------------------------------------------------------------------------------------


 INCAR:
 POTCAR:    PAW_PBE H 15Jun2001                   
 POTCAR:    PAW_PBE C 08Apr2002                   
 POTCAR:    PAW_PBE N 08Apr2002                   
 POTCAR:    PAW_PBE H 15Jun2001                   
   VRHFIN =H: ultrasoft test                                                    
   LEXCH  = PE                                                                  
   EATOM  =    12.4884 eV,    0.9179 Ry                                         
                                                                                
   TITEL  = PAW_PBE H 15Jun2001                                                 
   LULTRA =        F    use ultrasoft PP ?                                      
   IUNSCR =        0    unscreen: 0-lin 1-nonlin 2-no                           
   RPACOR =    0.000    partial core radius                                     
   POMASS =    1.000; ZVAL   =    1.000    mass and valenz                      
   RCORE  =    1.100    outmost cutoff radius                                   
   RWIGS  =    0.700; RWIGS  =    0.370    wigner-seitz radius (au A)           
   ENMAX  =  250.000; ENMIN  =  200.000 eV                                      
   RCLOC  =    0.701    cutoff for local pot                                    
   LCOR   =        T    correct aug charges                                     
   LPAW   =        T    paw PP                                                  
   EAUG   =  400.000                                                            
   RMAX   =    1.123    core radius for proj-oper                               
   RAUG   =    1.200    factor for augmentation sphere                          
   RDEP   =    1.112    radius for radial grids                                 
   RDEPT  =    0.926    core radius for aug-charge                              
                                                                                
   Atomic configuration                                                         
    2 entries                                                                   
     n  l   j            E        occ.                                          
     1  0  0.50        -6.4927   1.0000                                         
     2  1  0.50        -3.4015   0.0000                                         
   Description                                                                  
     l       E           TYP  RCUT    TYP  RCUT                                 
     0     -6.4927494     23  1.100                                             
     0      6.8029130     23  1.100                                             
     1     -4.0817478     23  1.100                                             
  local pseudopotential read in
  atomic valenz-charges read in
  non local Contribution for L=           0  read in
    real space projection operators read in
  non local Contribution for L=           0  read in
    real space projection operators read in
  non local Contribution for L=           1  read in
    real space projection operators read in
    PAW grid and wavefunctions read in
 
   number of l-projection  operators is LMAX  =           3
   number of lm-projection operators is LMMAX =           5
 
 POTCAR:    PAW_PBE C 08Apr2002                   
   VRHFIN =C: s2p2                                                              
   LEXCH  = PE                                                                  
   EATOM  =   147.1560 eV,   10.8157 Ry                                         
                                                                                
   TITEL  = PAW_PBE C 08Apr2002                                                 
   LULTRA =        F    use ultrasoft PP ?                                      
   IUNSCR =        1    unscreen: 0-lin 1-nonlin 2-no                           
   RPACOR =    1.200    partial core radius                                     
   POMASS =   12.011; ZVAL   =    4.000    mass and valenz                      
   RCORE  =    1.500    outmost cutoff radius                                   
   RWIGS  =    1.630; RWIGS  =    0.863    wigner-seitz radius (au A)           
   ENMAX  =  400.000; ENMIN  =  300.000 eV                                      
   ICORE  =        2    local potential                                         
   LCOR   =        T    correct aug charges                                     
   LPAW   =        T    paw PP                                                  
   EAUG   =  644.873                                                            
   DEXC   =    0.000                                                            
   RMAX   =    1.529    core radius for proj-oper                               
   RAUG   =    1.300    factor for augmentation sphere                          
   RDEP   =    1.501    radius for radial grids                                 
   RDEPT  =    1.300    core radius for aug-charge                              
                                                                                
   Atomic configuration                                                         
    4 entries                                                                   
     n  l   j            E        occ.                                          
     1  0  0.50      -273.3789   2.0000                                         
     2  0  0.50       -13.7508   2.0000                                         
     2  1  0.50        -5.2854   2.0000                                         
     3  2  1.50        -5.4423   0.0000                                         
   Description                                                                  
     l       E           TYP  RCUT    TYP  RCUT                                 
     0    -13.7508458     23  1.200                                             
     0     -8.2022199     23  1.200                                             
     1     -5.2854383     23  1.500                                             
     1     34.0145650     23  1.500                                             
     2     -5.4423304      7  1.500                                             
  local pseudopotential read in
  partial core-charges read in
  partial kinetic energy density read in
  atomic valenz-charges read in
  non local Contribution for L=           0  read in
    real space projection operators read in
  non local Contribution for L=           0  read in
    real space projection operators read in
  non local Contribution for L=           1  read in
    real space projection operators read in
  non local Contribution for L=           1  read in
    real space projection operators read in
    PAW grid and wavefunctions read in
 
   number of l-projection  operators is LMAX  =           4
   number of lm-projection operators is LMMAX =           8
 
 POTCAR:    PAW_PBE N 08Apr2002                   
   VRHFIN =N: s2p3                                                              
   LEXCH  = PE                                                                  
   EATOM  =   264.5486 eV,   19.4438 Ry                                         
                                                                                
   TITEL  = PAW_PBE N 08Apr2002                                                 
   LULTRA =        F    use ultrasoft PP ?                                      
   IUNSCR =        1    unscreen: 0-lin 1-nonlin 2-no                           
   RPACOR =    1.200    partial core radius                                     
   POMASS =   14.001; ZVAL   =    5.000    mass and valenz                      
   RCORE  =    1.500    outmost cutoff radius                                   
   RWIGS  =    1.400; RWIGS  =    0.741    wigner-seitz radius (au A)           
   ENMAX  =  400.000; ENMIN  =  300.000 eV                                      
   ICORE  =        2    local potential                                         
   LCOR   =        T    correct aug charges                                     
   LPAW   =        T    paw PP                                                  
   EAUG   =  627.112                                                            
   DEXC   =    0.000                                                            
   RMAX   =    1.529    core radius for proj-oper                               
   RAUG   =    1.300    factor for augmentation sphere                          
   RDEP   =    1.514    radius for radial grids                                 
   RDEPT  =    1.338    core radius for aug-charge                              
                                                                                
   Atomic configuration                                                         
    4 entries                                                                   
     n  l   j            E        occ.                                          
     1  0  0.50      -384.7179   2.0000                                         
     2  0  0.50       -18.5828   2.0000                                         
     2  1  0.50        -7.0898   3.0000                                         
     3  2  1.50        -6.8029   0.0000                                         
   Description                                                                  
     l       E           TYP  RCUT    TYP  RCUT                                 
     0    -18.5828119     23  1.200                                             
     0    -13.5018863     23  1.200                                             
     1     -7.0897853     23  1.500                                             
     1      9.5240782     23  1.500                                             
     2     -6.8029130      7  1.500                                             
  local pseudopotential read in
  partial core-charges read in
  partial kinetic energy density read in
  atomic valenz-charges read in
  non local Contribution for L=           0  read in
    real space projection operators read in
  non local Contribution for L=           0  read in
    real space projection operators read in
  non local Contribution for L=           1  read in
    real space projection operators read in
  non local Contribution for L=           1  read in
    real space projection operators read in
    PAW grid and wavefunctions read in
 
   number of l-projection  operators is LMAX  =           4
   number of lm-projection operators is LMMAX =           8
 

 ----------------------------------------------------------------------------- 
|                                                                             |
|  ADVICE TO THIS USER RUNNING 'VASP/VAMP'   (HEAR YOUR MASTER'S VOICE ...):  |
|                                                                             |
|      You have a (more or less) 'small supercell' and for smaller cells      |
|      it is recommended  to use the reciprocal-space projection scheme!      |
|      The real space optimization is not  efficient for small cells and it   |
|      is also less accurate ...                                              |
|      Therefore set LREAL=.FALSE. in the  INCAR file                         |
|                                                                             |
 ----------------------------------------------------------------------------- 

 Optimization of the real space projectors (new method)

 maximal supplied QI-value         = 34.20
 optimisation between [QCUT,QGAM] = [  9.92, 20.18] = [ 27.55,114.04] Ry 
 Optimized for a Real-space Cutoff    1.26 Angstroem

   l    n(q)    QCUT    max X(q) W(low)/X(q) W(high)/X(q)  e(spline) 
   0      8     9.919    19.460    0.50E-03    0.23E-03    0.29E-06
   0      8     9.919    12.209    0.48E-03    0.23E-03    0.28E-06
   1      7     9.919     4.655    0.17E-03    0.75E-03    0.30E-06
 Optimization of the real space projectors (new method)

 maximal supplied QI-value         = 25.13
 optimisation between [QCUT,QGAM] = [ 10.05, 20.36] = [ 28.30,116.06] Ry 
 Optimized for a Real-space Cutoff    1.30 Angstroem

   l    n(q)    QCUT    max X(q) W(low)/X(q) W(high)/X(q)  e(spline) 
   0      8    10.053   115.676    0.49E-03    0.72E-03    0.18E-06
   0      8    10.053    87.132    0.49E-03    0.71E-03    0.18E-06
   1      7    10.053     4.429    0.32E-03    0.31E-03    0.18E-06
   1      7    10.053     2.733    0.23E-03    0.19E-03    0.20E-06
 Optimization of the real space projectors (new method)

 maximal supplied QI-value         = 25.13
 optimisation between [QCUT,QGAM] = [ 10.05, 20.36] = [ 28.30,116.06] Ry 
 Optimized for a Real-space Cutoff    1.65 Angstroem

   l    n(q)    QCUT    max X(q) W(low)/X(q) W(high)/X(q)  e(spline) 
   0     10    10.053    79.467    0.76E-04    0.72E-04    0.56E-06
   0     10    10.053    66.151    0.76E-04    0.72E-04    0.55E-06
   1     10    10.053     8.350    0.25E-03    0.92E-03    0.41E-05
   1     10    10.053     5.531    0.27E-03    0.10E-02    0.45E-05
  PAW_PBE H 15Jun2001                   :
 energy of atom  1       EATOM=  -12.4884
 kinetic energy error for atom=    0.0098 (will be added to EATOM!!)
  PAW_PBE C 08Apr2002                   :
 energy of atom  2       EATOM= -147.1560
 kinetic energy error for atom=    0.0288 (will be added to EATOM!!)
  PAW_PBE N 08Apr2002                   :
 energy of atom  3       EATOM= -264.5486
 kinetic energy error for atom=    0.0736 (will be added to EATOM!!)
 
 
 POSCAR: H3 C2 N1                                
  positions in direct lattice
  velocities in cartesian coordinates
 exchange correlation table for  LEXCH =        8
   RHO(1)=    0.500       N(1)  =     2000
   RHO(2)=  100.500       N(2)  =     4000

 VTST: version 3.2, (02/03/18)

 CHAIN: initializing optimizer
 
 OPT: Using FIRE optimizer
 OPT: FIRE, Init
 OPT: FIRE, MAXMOVE       0.20000
 OPT: FIRE, TIMESTEP      0.10000
 OPT: FIRE, FTIMEMAX      1.00000
 OPT: FIRE, FTIMEINC      1.10000
 OPT: FIRE, FTIMEDEC      0.50000
 OPT: FIRE, FALPHADEC     0.99000
 OPT: FIRE, FALPHA        0.10000
 OPT: FIRE, FNMIN         5
 
 CHAIN: Read ICHAIN            0
 CHAIN: Running the NEB
 NEB:          SPRING     -5.000000
 NEB:          LCLIMB      T
 NEB:     LTANGENTOLD      F
 NEB:           LDNEB      F
 NEB:        LDNEBORG      F
 NEB:        LNEBCELL      F
 NEB:          EFIRST      0.000000
 NEB:           ELAST      0.000000
 
 POSCAR: H3 C2 N1                                
  positions in direct lattice
  No initial velocities read in
 
 POSCAR: H3 C2 N1                                
  positions in direct lattice
  No initial velocities read in
 


--------------------------------------------------------------------------------------------------------


 ion  position               nearest neighbor table
   1  0.471  0.466  0.506-   4 1.10
   2  0.473  0.509  0.465-   4 1.10
   3  0.469  0.523  0.522-   4 1.10
   4  0.484  0.500  0.499-   1 1.10   2 1.10   3 1.10   5 1.45
   5  0.532  0.501  0.502-   6 1.17   4 1.45
   6  0.571  0.502  0.505-   5 1.17
 
  LATTYP: Found a simple cubic cell.
 ALAT       =    30.0000000000
  
  Lattice vectors:
  
 A1 = (  30.0000000000,   0.0000000000,   0.0000000000)
 A2 = (   0.0000000000,  30.0000000000,   0.0000000000)
 A3 = (   0.0000000000,   0.0000000000,  30.0000000000)


Analysis of symmetry for initial positions (statically):
=====================================================================
 Subroutine PRICEL returns:
 Original cell was already a primitive cell.
 

 Routine SETGRP: Setting up the symmetry group for a 
 simple cubic supercell.


 Subroutine GETGRP returns: Found  1 space group operations
 (whereof  1 operations were pure point group operations)
 out of a pool of 48 trial point group operations.


The static configuration has the point symmetry C_1 .


Analysis of symmetry for dynamics (positions and initial velocities):
=====================================================================
 Subroutine PRICEL returns:
 Original cell was already a primitive cell.
 

 Routine SETGRP: Setting up the symmetry group for a 
 simple cubic supercell.


 Subroutine GETGRP returns: Found  1 space group operations
 (whereof  1 operations were pure point group operations)
 out of a pool of 48 trial point group operations.


The dynamic configuration has the point symmetry C_1 .
 
 
 KPOINTS: Mo2C                                    

Automatic generation of k-mesh.
Space group operators:
 irot       det(A)        alpha          n_x          n_y          n_z        tau_x        tau_y        tau_z
    1     1.000000     0.000000     1.000000     0.000000     0.000000     0.000000     0.000000     0.000000
 
 Subroutine IBZKPT returns following result:
 ===========================================
 
 Found      4 irreducible k-points:
 
 Following reciprocal coordinates:
            Coordinates               Weight
  0.250000  0.250000  0.250000      2.000000
 -0.250000  0.250000  0.250000      2.000000
  0.250000 -0.250000  0.250000      2.000000
 -0.250000 -0.250000  0.250000      2.000000
 
 Following cartesian coordinates:
            Coordinates               Weight
  0.008333  0.008333  0.008333      2.000000
 -0.008333  0.008333  0.008333      2.000000
  0.008333 -0.008333  0.008333      2.000000
 -0.008333 -0.008333  0.008333      2.000000
 


--------------------------------------------------------------------------------------------------------




 Dimension of arrays:
   k-points           NKPTS =      4   k-points in BZ     NKDIM =      4   number of bands    NBANDS=     12
   number of dos      NEDOS =    301   number of ions     NIONS =      6
   non local maximal  LDIM  =      4   non local SUM 2l+1 LMDIM =      8
   total plane-waves  NPLWV = ******
   max r-space proj   IRMAX =   2395   max aug-charges    IRDMAX=   1738
   dimension x,y,z NGX =   150 NGY =  150 NGZ =  150
   dimension x,y,z NGXF=   300 NGYF=  300 NGZF=  300
   support grid    NGXF=   300 NGYF=  300 NGZF=  300
   ions per type =               3   2   1
 NGX,Y,Z   is equivalent  to a cutoff of   8.31,  8.31,  8.31 a.u.
 NGXF,Y,Z  is equivalent  to a cutoff of  16.62, 16.62, 16.62 a.u.


 I would recommend the setting:
   dimension x,y,z NGX =   147 NGY =  147 NGZ =  147
 SYSTEM =  unknown system                          
 POSCAR =  H3 C2 N1                                

 Startparameter for this run:
   NWRITE =      2    write-flag & timer
   PREC   = normal    normal or accurate (medium, high low for compatibility)
   ISTART =      0    job   : 0-new  1-cont  2-samecut
   ICHARG =      2    charge: 1-file 2-atom 10-const
   ISPIN  =      1    spin polarized calculation?
   LNONCOLLINEAR =      F non collinear calculations
   LSORBIT =      F    spin-orbit coupling
   INIWAV =      1    electr: 0-lowe 1-rand  2-diag
   LASPH  =      F    aspherical Exc in radial PAW
   METAGGA=      F    non-selfconsistent MetaGGA calc.

 Electronic Relaxation 1
   ENCUT  =  400.0 eV  29.40 Ry    5.42 a.u.  48.92 48.92 48.92*2*pi/ulx,y,z
   ENINI  =  400.0     initial cutoff
   ENAUG  =  644.9 eV  augmentation charge cutoff
   NELM   =    500;   NELMIN=  6; NELMDL= -5     # of ELM steps 
   EDIFF  = 0.1E-03   stopping-criterion for ELM
   LREAL  =      T    real-space projection
   NLSPLINE    = F    spline interpolate recip. space projectors
   LCOMPAT=      F    compatible to vasp.4.4
   GGA_COMPAT  = T    GGA compatible to vasp.4.4-vasp.4.6
   LMAXPAW     = -100 max onsite density
   LMAXMIX     =    2 max onsite mixed and CHGCAR
   VOSKOWN=      0    Vosko Wilk Nusair interpolation
   ROPT   =   -0.00050  -0.00050  -0.00050
 Ionic relaxation
   EDIFFG = -.1E+00   stopping-criterion for IOM
   NSW    =    300    number of steps for IOM
   NBLOCK =      1;   KBLOCK =    300    inner block; outer block 
   IBRION =      3    ionic relax: 0-MD 1-quasi-New 2-CG
   NFREE  =      0    steps in history (QN), initial steepest desc. (CG)
   ISIF   =      2    stress and relaxation
   IWAVPR =     11    prediction:  0-non 1-charg 2-wave 3-comb
   ISYM   =      2    0-nonsym 1-usesym 2-fastsym
   LCORR  =      T    Harris-Foulkes like correction to forces

   POTIM  = 0.0000    time-step for ionic-motion
   TEIN   =    0.0    initial temperature
   TEBEG  =    0.0;   TEEND  =   0.0 temperature during run
   SMASS  =   2.00    Nose mass-parameter (am)
   estimated Nose-frequenzy (Omega)   =  0.12E+10 period in steps =  0.00 mass=   0.137E-25a.u.
   SCALEE = 1.0000    scale energy and forces
   NPACO  =    256;   APACO  = 16.0  distance and # of slots for P.C.
   PSTRESS=    0.0 pullay stress

  Mass of Ions in am
   POMASS =   1.00 12.01 14.00
  Ionic Valenz
   ZVAL   =   1.00  4.00  5.00
  Atomic Wigner-Seitz radii
   RWIGS  =  -1.00 -1.00 -1.00
  virtual crystal weights 
   VCA    =   1.00  1.00  1.00
   NELECT =      16.0000    total number of electrons
   NUPDOWN=      -1.0000    fix difference up-down

 DOS related values:
   EMIN   =  10.00;   EMAX   =-10.00  energy-range for DOS
   EFERMI =   0.00
   ISMEAR =     0;   SIGMA  =   0.20  broadening in eV -4-tet -1-fermi 0-gaus

 Electronic relaxation 2 (details)
   IALGO  =     38    algorithm
   LDIAG  =      T    sub-space diagonalisation (order eigenvalues)
   LSUBROT=      F    optimize rotation matrix (better conditioning)
   TURBO    =      0    0=normal 1=particle mesh
   IRESTART =      0    0=no restart 2=restart with 2 vectors
   NREBOOT  =      0    no. of reboots
   NMIN     =      0    reboot dimension
   EREF     =   0.00    reference energy to select bands
   IMIX   =      4    mixing-type and parameters
     AMIX     =   0.40;   BMIX     =  1.00
     AMIX_MAG =   1.60;   BMIX_MAG =  1.00
     AMIN     =   0.10
     WC   =   100.;   INIMIX=   1;  MIXPRE=   1;  MAXMIX= -45

 Intra band minimization:
   WEIMIN = 0.0010     energy-eigenvalue tresh-hold
   EBREAK =  0.21E-05  absolut break condition
   DEPER  =   0.30     relativ break condition  

   TIME   =   0.40     timestep for ELM

  volume/ion in A,a.u.               =    4500.00     30367.50
  Fermi-wavevector in a.u.,A,eV,Ry     =   0.137508  0.259852  0.257264  0.018908
  Thomas-Fermi vector in A             =   0.790710
 
 Write flags
   LWAVE  =      F    write WAVECAR
   LCHARG =      F    write CHGCAR
   LVTOT  =      F    write LOCPOT, total local potential
   LVHAR  =      F    write LOCPOT, Hartree potential only
   LELF   =      F    write electronic localiz. function (ELF)
   LORBIT =      0    0 simple, 1 ext, 2 COOP (PROOUT)


 Dipole corrections
   LMONO  =      F    monopole corrections only (constant potential shift)
   LDIPOL =      F    correct potential (dipole corrections)
   IDIPOL =      0    1-x, 2-y, 3-z, 4-all directions 
   EPSILON=  1.0000000 bulk dielectric constant

 Exchange correlation treatment:
   GGA     =    PE    GGA type
   LEXCH   =     8    internal setting for exchange type
   VOSKOWN=      0    Vosko Wilk Nusair interpolation
   LHFCALC =     F    Hartree Fock is set to
   LHFONE  =     F    Hartree Fock one center treatment
   AEXX    =    0.0000 exact exchange contribution

 Linear response parameters
   LEPSILON=     F    determine dielectric tensor
   LRPA    =     F    only Hartree local field effects (RPA)
   LNABLA  =     F    use nabla operator in PAW spheres
   LVEL    =     F    velocity operator in full k-point grid
   LINTERFAST=   F  fast interpolation
   KINTER  =     0    interpolate to denser k-point grid
   CSHIFT  =0.1000    complex shift for real part using Kramers Kronig
   OMEGAMAX=  -1.0    maximum frequency
   DEG_THRESHOLD= 0.2000000E-02 threshold for treating states as degnerate
   RTIME   =    0.100 relaxation time in fs

 Orbital magnetization related:
   ORBITALMAG=     F  switch on orbital magnetization
   LCHIMAG   =     F  perturbation theory with respect to B field
   DQ        =  0.001000  dq finite difference perturbation B field



--------------------------------------------------------------------------------------------------------


 quickmin algorithm: (dynamic with friction)
 charge density and potential will be updated during run
 non-spin polarized calculation
 Variant of blocked Davidson
 Davidson routine will perform the subspace rotation
 perform sub-space diagonalisation
    after iterative eigenvector-optimisation
 modified Broyden-mixing scheme, WC =      100.0
 initial mixing is a Kerker type mixing with AMIX =  0.4000 and BMIX =      1.0000
 Hartree-type preconditioning will be used
 using additional bands            4
 real space projection scheme for non local part
 use partial core corrections
 calculate Harris-corrections to forces 
   (improved forces if not selfconsistent)
 use gradient corrections 
 use of overlap-Matrix (Vanderbilt PP)
 Gauss-broadening in eV      SIGMA  =   0.20


--------------------------------------------------------------------------------------------------------


  energy-cutoff  :      400.00
  volume of cell :    27000.00
      direct lattice vectors                 reciprocal lattice vectors
    30.000000000  0.000000000  0.000000000     0.033333333  0.000000000  0.000000000
     0.000000000 30.000000000  0.000000000     0.000000000  0.033333333  0.000000000
     0.000000000  0.000000000 30.000000000     0.000000000  0.000000000  0.033333333

  length of vectors
    30.000000000 30.000000000 30.000000000     0.033333333  0.033333333  0.033333333


 
 k-points in units of 2pi/SCALE and weight: Mo2C                                    
   0.00833333  0.00833333  0.00833333       0.250
  -0.00833333  0.00833333  0.00833333       0.250
   0.00833333 -0.00833333  0.00833333       0.250
  -0.00833333 -0.00833333  0.00833333       0.250
 
 k-points in reciprocal lattice and weights: Mo2C                                    
   0.25000000  0.25000000  0.25000000       0.250
  -0.25000000  0.25000000  0.25000000       0.250
   0.25000000 -0.25000000  0.25000000       0.250
  -0.25000000 -0.25000000  0.25000000       0.250
 
 position of ions in fractional coordinates (direct lattice) 
   0.47114718  0.46611854  0.50628869
   0.47319164  0.50879463  0.46483796
   0.46865144  0.52337366  0.52237381
   0.48366731  0.49972044  0.49875732
   0.53197183  0.50081966  0.50230595
   0.57074378  0.50168421  0.50516897
 
 position of ions in cartesian coordinates  (Angst):
  14.13441548 13.98355614 15.18866077
  14.19574921 15.26383899 13.94513886
  14.05954327 15.70120984 15.67121432
  14.51001923 14.99161331 14.96271947
  15.95915475 15.02458982 15.06917862
  17.12231344 15.05052618 15.15506922
 


--------------------------------------------------------------------------------------------------------


 k-point  1 :   0.2500 0.2500 0.2500  plane waves:  490454
 k-point  2 :  -0.2500 0.2500 0.2500  plane waves:  490454
 k-point  3 :   0.2500-0.2500 0.2500  plane waves:  490454
 k-point  4 :  -0.2500-0.2500 0.2500  plane waves:  490454

 maximum and minimum number of plane-waves per node :    490454   490454

 maximum number of plane-waves:    490454
 maximum index in each direction: 
   IXMAX=   49   IYMAX=   49   IZMAX=   48
   IXMIN=  -49   IYMIN=  -49   IZMIN=  -49

 WARNING: aliasing errors must be expected set NGX to 198 to avoid them
 WARNING: aliasing errors must be expected set NGY to 198 to avoid them
 WARNING: aliasing errors must be expected set NGZ to 196 to avoid them
 aliasing errors are usually negligible using standard VASP settings
 and one can safely disregard these warnings

 serial   3D FFT for wavefunctions
 parallel 3D FFT for charge:
    minimum data exchange during FFTs selected (reduces bandwidth)


 total amount of memory used by VASP on root node  3203887. kBytes
========================================================================

   base      :      30000. kBytes
   nonlr-proj:        691. kBytes
   fftplans  :     924480. kBytes
   grid      :    1872000. kBytes
   one-center:         18. kBytes
   wavefun   :     376698. kBytes
 
     INWAV:  cpu time    0.0000: real time    0.0004
 Broyden mixing: mesh for mixing (old mesh)
   NGX = 97   NGY = 97   NGZ = 97
  (NGX  =300   NGY  =300   NGZ  =300)
  gives a total of 912673 points

 initial charge density was supplied:
 charge density of overlapping atoms calculated
 number of electron      16.0000000 magnetization 
 keeping initial charge density in first step


--------------------------------------------------------------------------------------------------------


 Maximum index for non-local projection operator         2272
 Maximum index for augmentation-charges         1496 (set IRDMAX)


--------------------------------------------------------------------------------------------------------


 First call to EWALD:  gamma=   0.059
 Maximum number of real-space cells 3x 3x 3
 Maximum number of reciprocal cells 3x 3x 3

 FEWALD executed in parallel
    FEWALD:  cpu time    0.0020: real time    0.0022


----------------------------------------- Iteration    1(   1)  ---------------------------------------


    POTLOK:  cpu time   30.3364: real time   30.4033
    SETDIJ:  cpu time    0.0070: real time    0.0067
     EDDAV:  cpu time  140.5216: real time  140.8333
       DOS:  cpu time    0.0000: real time    0.0003
    --------------------------------------------
      LOOP:  cpu time  170.8690: real time  171.2498

 eigenvalue-minimisations  :   160
 total energy-change (2. order) : 0.1159107E+03  (-0.2118490E+03)
 number of electron      16.0000000 magnetization 
 augmentation part       16.0000000 magnetization 

 Free energy of the ion-electron system (eV)
  ---------------------------------------------------
  alpha Z        PSCENC =         0.04144063
  Ewald energy   TEWEN  =       673.02408710
  -Hartree energ DENC   =     -1087.09987545
  -exchange      EXHF   =         0.00000000
  -V(xc)+E(xc)   XCENC  =        51.36365194
  PAW double counting   =       428.37890668     -430.73533574
  entropy T*S    EENTRO =        -0.17721549
  eigenvalues    EBANDS =      -115.05028669
  atomic energy  EATOM  =       596.16534815
  Solvation  Ediel_sol  =         0.00000000
  ---------------------------------------------------
  free energy    TOTEN  =       115.91072113 eV

  energy without entropy =      116.08793662  energy(sigma->0) =      115.99932888


--------------------------------------------------------------------------------------------------------




----------------------------------------- Iteration    1(   2)  ---------------------------------------


     EDDAV:  cpu time  162.7103: real time  163.0713
       DOS:  cpu time    0.0000: real time    0.0001
    --------------------------------------------
      LOOP:  cpu time  162.7133: real time  163.0758

 eigenvalue-minimisations  :   192
 total energy-change (2. order) :-0.1162353E+03  (-0.1134518E+03)
 number of electron      16.0000000 magnetization 
 augmentation part       16.0000000 magnetization 

 Free energy of the ion-electron system (eV)
  ---------------------------------------------------
  alpha Z        PSCENC =         0.04144063
  Ewald energy   TEWEN  =       673.02408710
  -Hartree energ DENC   =     -1087.09987545
  -exchange      EXHF   =         0.00000000
  -V(xc)+E(xc)   XCENC  =        51.36365194
  PAW double counting   =       428.37890668     -430.73533574
  entropy T*S    EENTRO =         0.00000000
  eigenvalues    EBANDS =      -231.46276100
  atomic energy  EATOM  =       596.16534815
  Solvation  Ediel_sol  =         0.00000000
  ---------------------------------------------------
  free energy    TOTEN  =        -0.32453769 eV

  energy without entropy =       -0.32453769  energy(sigma->0) =       -0.32453769


--------------------------------------------------------------------------------------------------------




----------------------------------------- Iteration    1(   3)  ---------------------------------------


     EDDAV:  cpu time  114.1796: real time  114.4330
       DOS:  cpu time    0.0010: real time    0.0002
    --------------------------------------------
      LOOP:  cpu time  114.1806: real time  114.4368

 eigenvalue-minimisations  :   120
 total energy-change (2. order) :-0.3679711E+02  (-0.3667171E+02)
 number of electron      16.0000000 magnetization 
 augmentation part       16.0000000 magnetization 

 Free energy of the ion-electron system (eV)
  ---------------------------------------------------
  alpha Z        PSCENC =         0.04144063
  Ewald energy   TEWEN  =       673.02408710
  -Hartree energ DENC   =     -1087.09987545
  -exchange      EXHF   =         0.00000000
  -V(xc)+E(xc)   XCENC  =        51.36365194
  PAW double counting   =       428.37890668     -430.73533574
  entropy T*S    EENTRO =         0.00000000
  eigenvalues    EBANDS =      -268.25986813
  atomic energy  EATOM  =       596.16534815
  Solvation  Ediel_sol  =         0.00000000
  ---------------------------------------------------
  free energy    TOTEN  =       -37.12164482 eV

  energy without entropy =      -37.12164482  energy(sigma->0) =      -37.12164482


--------------------------------------------------------------------------------------------------------




----------------------------------------- Iteration    1(   4)  ---------------------------------------


     EDDAV:  cpu time  116.5053: real time  116.7644
       DOS:  cpu time    0.0000: real time    0.0002
    --------------------------------------------
      LOOP:  cpu time  116.5073: real time  116.7692

 eigenvalue-minimisations  :   128
 total energy-change (2. order) :-0.3623008E+01  (-0.3604805E+01)
 number of electron      16.0000000 magnetization 
 augmentation part       16.0000000 magnetization 

 Free energy of the ion-electron system (eV)
  ---------------------------------------------------
  alpha Z        PSCENC =         0.04144063
  Ewald energy   TEWEN  =       673.02408710
  -Hartree energ DENC   =     -1087.09987545
  -exchange      EXHF   =         0.00000000
  -V(xc)+E(xc)   XCENC  =        51.36365194
  PAW double counting   =       428.37890668     -430.73533574
  entropy T*S    EENTRO =         0.00000000
  eigenvalues    EBANDS =      -271.88287643
  atomic energy  EATOM  =       596.16534815
  Solvation  Ediel_sol  =         0.00000000
  ---------------------------------------------------
  free energy    TOTEN  =       -40.74465311 eV

  energy without entropy =      -40.74465311  energy(sigma->0) =      -40.74465311


--------------------------------------------------------------------------------------------------------




----------------------------------------- Iteration    1(   5)  ---------------------------------------


     EDDAV:  cpu time  113.6467: real time  113.8988
       DOS:  cpu time    0.0000: real time    0.0002
    CHARGE:  cpu time    9.5905: real time    9.6142
    MIXING:  cpu time    0.7859: real time    0.7869
    --------------------------------------------
      LOOP:  cpu time  124.0231: real time  124.3039

 eigenvalue-minimisations  :   124
 total energy-change (2. order) :-0.8496300E-01  (-0.8224882E-01)
 number of electron      15.9999992 magnetization 
 augmentation part        0.5262436 magnetization 

 Broyden mixing:
  rms(total) = 0.10912E+01    rms(broyden)= 0.10904E+01
  rms(prec ) = 0.11343E+01
  weight for this iteration     100.00

 Free energy of the ion-electron system (eV)
  ---------------------------------------------------
  alpha Z        PSCENC =         0.04144063
  Ewald energy   TEWEN  =       673.02408710
  -Hartree energ DENC   =     -1087.09987545
  -exchange      EXHF   =         0.00000000
  -V(xc)+E(xc)   XCENC  =        51.36365194
  PAW double counting   =       428.37890668     -430.73533574
  entropy T*S    EENTRO =         0.00000000
  eigenvalues    EBANDS =      -271.96783943
  atomic energy  EATOM  =       596.16534815
  Solvation  Ediel_sol  =         0.00000000
  ---------------------------------------------------
  free energy    TOTEN  =       -40.82961611 eV

  energy without entropy =      -40.82961611  energy(sigma->0) =      -40.82961611


--------------------------------------------------------------------------------------------------------




----------------------------------------- Iteration    1(   6)  ---------------------------------------


    POTLOK:  cpu time   29.9344: real time   30.0018
    SETDIJ:  cpu time    0.0070: real time    0.0065
     EDDAV:  cpu time   97.8021: real time   98.0122
       DOS:  cpu time    0.0000: real time    0.0002
    CHARGE:  cpu time    9.1446: real time    9.1656
    MIXING:  cpu time    0.9239: real time    0.9252
    --------------------------------------------
      LOOP:  cpu time  137.8130: real time  138.1160

 eigenvalue-minimisations  :   112
 total energy-change (2. order) : 0.3283590E+01  (-0.6641431E+00)
 number of electron      15.9999995 magnetization 
 augmentation part        0.4536195 magnetization 

 Broyden mixing:
  rms(total) = 0.59352E+00    rms(broyden)= 0.59327E+00
  rms(prec ) = 0.60952E+00
  weight for this iteration     100.00

 eigenvalues of (default mixing * dielectric matrix)
  average eigenvalue GAMMA=   1.2636
  1.2636

 Free energy of the ion-electron system (eV)
  ---------------------------------------------------
  alpha Z        PSCENC =         0.04144063
  Ewald energy   TEWEN  =       673.02408710
  -Hartree energ DENC   =     -1119.02547696
  -exchange      EXHF   =         0.00000000
  -V(xc)+E(xc)   XCENC  =        53.15388633
  PAW double counting   =       731.43355507     -734.11716322
  entropy T*S    EENTRO =         0.00000000
  eigenvalues    EBANDS =      -238.22170329
  atomic energy  EATOM  =       596.16534815
  Solvation  Ediel_sol  =         0.00000000
  ---------------------------------------------------
  free energy    TOTEN  =       -37.54602618 eV

  energy without entropy =      -37.54602618  energy(sigma->0) =      -37.54602618


--------------------------------------------------------------------------------------------------------




----------------------------------------- Iteration    1(   7)  ---------------------------------------


    POTLOK:  cpu time   31.5942: real time   31.6638
    SETDIJ:  cpu time    0.0070: real time    0.0067
     EDDAV:  cpu time  111.8620: real time  112.1057
       DOS:  cpu time    0.0000: real time    0.0002
    CHARGE:  cpu time    9.2636: real time    9.2828
    MIXING:  cpu time    1.0348: real time    1.0376
    --------------------------------------------
      LOOP:  cpu time  153.7626: real time  154.1006

 eigenvalue-minimisations  :   116
 total energy-change (2. order) : 0.6621796E+00  (-0.1408883E+00)
 number of electron      15.9999994 magnetization 
 augmentation part        0.4555353 magnetization 

 Broyden mixing:
  rms(total) = 0.29998E+00    rms(broyden)= 0.29992E+00
  rms(prec ) = 0.30804E+00
  weight for this iteration     100.00

 eigenvalues of (default mixing * dielectric matrix)
  average eigenvalue GAMMA=   1.4484
  0.9086  1.9882

 Free energy of the ion-electron system (eV)
  ---------------------------------------------------
  alpha Z        PSCENC =         0.04144063
  Ewald energy   TEWEN  =       673.02408710
  -Hartree energ DENC   =     -1136.04686109
  -exchange      EXHF   =         0.00000000
  -V(xc)+E(xc)   XCENC  =        54.08566561
  PAW double counting   =      1038.30111668    -1041.09680298
  entropy T*S    EENTRO =         0.00000000
  eigenvalues    EBANDS =      -221.35784068
  atomic energy  EATOM  =       596.16534815
  Solvation  Ediel_sol  =         0.00000000
  ---------------------------------------------------
  free energy    TOTEN  =       -36.88384659 eV

  energy without entropy =      -36.88384659  energy(sigma->0) =      -36.88384659


--------------------------------------------------------------------------------------------------------




----------------------------------------- Iteration    1(   8)  ---------------------------------------


    POTLOK:  cpu time   31.4182: real time   31.4882
    SETDIJ:  cpu time    0.0070: real time    0.0065
     EDDAV:  cpu time  122.3044: real time  122.5717
       DOS:  cpu time    0.0000: real time    0.0002
    CHARGE:  cpu time    9.0976: real time    9.1172
    MIXING:  cpu time    1.1208: real time    1.1237
    --------------------------------------------
      LOOP:  cpu time  163.9501: real time  164.3114

 eigenvalue-minimisations  :   128
 total energy-change (2. order) : 0.1729557E+00  (-0.4155769E-01)
 number of electron      15.9999994 magnetization 
 augmentation part        0.4360881 magnetization 

 Broyden mixing:
  rms(total) = 0.10853E+00    rms(broyden)= 0.10849E+00
  rms(prec ) = 0.11305E+00
  weight for this iteration     100.00

 eigenvalues of (default mixing * dielectric matrix)
  average eigenvalue GAMMA=   1.4575
  2.1636  1.4565  0.7523

 Free energy of the ion-electron system (eV)
  ---------------------------------------------------
  alpha Z        PSCENC =         0.04144063
  Ewald energy   TEWEN  =       673.02408710
  -Hartree energ DENC   =     -1146.85094137
  -exchange      EXHF   =         0.00000000
  -V(xc)+E(xc)   XCENC  =        54.77744732
  PAW double counting   =      1294.77312968    -1297.62281432
  entropy T*S    EENTRO =         0.00000000
  eigenvalues    EBANDS =      -211.01858812
  atomic energy  EATOM  =       596.16534815
  Solvation  Ediel_sol  =         0.00000000
  ---------------------------------------------------
  free energy    TOTEN  =       -36.71089093 eV

  energy without entropy =      -36.71089093  energy(sigma->0) =      -36.71089093


--------------------------------------------------------------------------------------------------------




----------------------------------------- Iteration    1(   9)  ---------------------------------------


    POTLOK:  cpu time   31.5512: real time   31.6207
    SETDIJ:  cpu time    0.0060: real time    0.0066
     EDDAV:  cpu time  116.8972: real time  117.1523
       DOS:  cpu time    0.0000: real time    0.0002
    CHARGE:  cpu time    9.2946: real time    9.3159
    MIXING:  cpu time    1.2558: real time    1.2581
    --------------------------------------------
      LOOP:  cpu time  159.0068: real time  159.3586

 eigenvalue-minimisations  :   128
 total energy-change (2. order) : 0.2525228E-01  (-0.3403421E-02)
 number of electron      15.9999994 magnetization 
 augmentation part        0.4373466 magnetization 

 Broyden mixing:
  rms(total) = 0.32850E-01    rms(broyden)= 0.32838E-01
  rms(prec ) = 0.38624E-01
  weight for this iteration     100.00

 eigenvalues of (default mixing * dielectric matrix)
  average eigenvalue GAMMA=   1.4509
  2.2849  1.6772  0.8019  1.0397

 Free energy of the ion-electron system (eV)
  ---------------------------------------------------
  alpha Z        PSCENC =         0.04144063
  Ewald energy   TEWEN  =       673.02408710
  -Hartree energ DENC   =     -1148.61770988
  -exchange      EXHF   =         0.00000000
  -V(xc)+E(xc)   XCENC  =        54.88083398
  PAW double counting   =      1368.78850672    -1371.60935209
  entropy T*S    EENTRO =         0.00000000
  eigenvalues    EBANDS =      -209.35879328
  atomic energy  EATOM  =       596.16534815
  Solvation  Ediel_sol  =         0.00000000
  ---------------------------------------------------
  free energy    TOTEN  =       -36.68563865 eV

  energy without entropy =      -36.68563865  energy(sigma->0) =      -36.68563865


--------------------------------------------------------------------------------------------------------




----------------------------------------- Iteration    1(  10)  ---------------------------------------


    POTLOK:  cpu time   31.5822: real time   31.6531
    SETDIJ:  cpu time    0.0070: real time    0.0066
     EDDAV:  cpu time  121.7185: real time  121.9918
       DOS:  cpu time    0.0000: real time    0.0002
    CHARGE:  cpu time    9.1146: real time    9.1355
    MIXING:  cpu time    1.4558: real time    1.4593
    --------------------------------------------
      LOOP:  cpu time  163.8811: real time  164.2503

 eigenvalue-minimisations  :   128
 total energy-change (2. order) : 0.4379846E-02  (-0.4742530E-03)
 number of electron      15.9999994 magnetization 
 augmentation part        0.4382937 magnetization 

 Broyden mixing:
  rms(total) = 0.14534E-01    rms(broyden)= 0.14530E-01
  rms(prec ) = 0.21023E-01
  weight for this iteration     100.00

 eigenvalues of (default mixing * dielectric matrix)
  average eigenvalue GAMMA=   1.4614
  2.1781  2.1781  1.3354  0.8077  0.8077

 Free energy of the ion-electron system (eV)
  ---------------------------------------------------
  alpha Z        PSCENC =         0.04144063
  Ewald energy   TEWEN  =       673.02408710
  -Hartree energ DENC   =     -1149.84488165
  -exchange      EXHF   =         0.00000000
  -V(xc)+E(xc)   XCENC  =        54.91962353
  PAW double counting   =      1383.71220399    -1386.52123156
  entropy T*S    EENTRO =         0.00000000
  eigenvalues    EBANDS =      -208.17784901
  atomic energy  EATOM  =       596.16534815
  Solvation  Ediel_sol  =         0.00000000
  ---------------------------------------------------
  free energy    TOTEN  =       -36.68125881 eV

  energy without entropy =      -36.68125881  energy(sigma->0) =      -36.68125881


--------------------------------------------------------------------------------------------------------




----------------------------------------- Iteration    1(  11)  ---------------------------------------


    POTLOK:  cpu time   31.0873: real time   31.1566
    SETDIJ:  cpu time    0.0070: real time    0.0067
     EDDAV:  cpu time  119.3099: real time  119.5755
       DOS:  cpu time    0.0000: real time    0.0002
    CHARGE:  cpu time    9.1066: real time    9.1269
    MIXING:  cpu time    1.5588: real time    1.5611
    --------------------------------------------
      LOOP:  cpu time  161.0705: real time  161.4320

 eigenvalue-minimisations  :   128
 total energy-change (2. order) :-0.1173640E-02  (-0.1838216E-03)
 number of electron      15.9999994 magnetization 
 augmentation part        0.4378886 magnetization 

 Broyden mixing:
  rms(total) = 0.94983E-02    rms(broyden)= 0.94970E-02
  rms(prec ) = 0.14648E-01
  weight for this iteration     100.00

 eigenvalues of (default mixing * dielectric matrix)
  average eigenvalue GAMMA=   1.7332
  3.2454  2.4714  1.4951  1.4951  0.8459  0.8459

 Free energy of the ion-electron system (eV)
  ---------------------------------------------------
  alpha Z        PSCENC =         0.04144063
  Ewald energy   TEWEN  =       673.02408710
  -Hartree energ DENC   =     -1150.98345684
  -exchange      EXHF   =         0.00000000
  -V(xc)+E(xc)   XCENC  =        54.94582418
  PAW double counting   =      1380.68942126    -1383.49346694
  entropy T*S    EENTRO =         0.00000000
  eigenvalues    EBANDS =      -207.07162998
  atomic energy  EATOM  =       596.16534815
  Solvation  Ediel_sol  =         0.00000000
  ---------------------------------------------------
  free energy    TOTEN  =       -36.68243245 eV

  energy without entropy =      -36.68243245  energy(sigma->0) =      -36.68243245


--------------------------------------------------------------------------------------------------------




----------------------------------------- Iteration    1(  12)  ---------------------------------------


    POTLOK:  cpu time   31.2363: real time   31.3070
    SETDIJ:  cpu time    0.0070: real time    0.0070
     EDDAV:  cpu time  103.9112: real time  104.1437
       DOS:  cpu time    0.0000: real time    0.0002
    CHARGE:  cpu time    8.9186: real time    8.9386
    MIXING:  cpu time    1.5428: real time    1.5458
    --------------------------------------------
      LOOP:  cpu time  145.6179: real time  145.9480

 eigenvalue-minimisations  :   112
 total energy-change (2. order) :-0.6817459E-02  (-0.4967654E-03)
 number of electron      15.9999995 magnetization 
 augmentation part        0.4372332 magnetization 

 Broyden mixing:
  rms(total) = 0.49156E-02    rms(broyden)= 0.49082E-02
  rms(prec ) = 0.71540E-02
  weight for this iteration     100.00

 eigenvalues of (default mixing * dielectric matrix)
  average eigenvalue GAMMA=   1.7291
  3.7875  2.2579  1.8458  1.4146  0.8130  0.9056  1.0794

 Free energy of the ion-electron system (eV)
  ---------------------------------------------------
  alpha Z        PSCENC =         0.04144063
  Ewald energy   TEWEN  =       673.02408710
  -Hartree energ DENC   =     -1152.79156651
  -exchange      EXHF   =         0.00000000
  -V(xc)+E(xc)   XCENC  =        54.98311730
  PAW double counting   =      1373.96269650    -1376.76210834
  entropy T*S    EENTRO =         0.00000000
  eigenvalues    EBANDS =      -205.31226474
  atomic energy  EATOM  =       596.16534815
  Solvation  Ediel_sol  =         0.00000000
  ---------------------------------------------------
  free energy    TOTEN  =       -36.68924991 eV

  energy without entropy =      -36.68924991  energy(sigma->0) =      -36.68924991


--------------------------------------------------------------------------------------------------------




----------------------------------------- Iteration    1(  13)  ---------------------------------------


    POTLOK:  cpu time   31.3422: real time   31.4135
    SETDIJ:  cpu time    0.0070: real time    0.0068
     EDDAV:  cpu time  140.2607: real time  140.5700
       DOS:  cpu time    0.0000: real time    0.0002
    CHARGE:  cpu time    8.9676: real time    8.9876
    MIXING:  cpu time    1.7037: real time    1.7073
    --------------------------------------------
      LOOP:  cpu time  182.2833: real time  182.6913

 eigenvalue-minimisations  :   160
 total energy-change (2. order) :-0.4370934E-02  (-0.1196504E-03)
 number of electron      15.9999995 magnetization 
 augmentation part        0.4370647 magnetization 

 Broyden mixing:
  rms(total) = 0.35333E-02    rms(broyden)= 0.35306E-02
  rms(prec ) = 0.51769E-02
  weight for this iteration     100.00

 eigenvalues of (default mixing * dielectric matrix)
  average eigenvalue GAMMA=   1.7528
  4.3520  2.3750  1.5917  1.5917  1.5549  0.8698  0.8698  0.8175

 Free energy of the ion-electron system (eV)
  ---------------------------------------------------
  alpha Z        PSCENC =         0.04144063
  Ewald energy   TEWEN  =       673.02408710
  -Hartree energ DENC   =     -1153.18855788
  -exchange      EXHF   =         0.00000000
  -V(xc)+E(xc)   XCENC  =        54.98742454
  PAW double counting   =      1375.03738812    -1377.83761416
  entropy T*S    EENTRO =         0.00000000
  eigenvalues    EBANDS =      -204.92313735
  atomic energy  EATOM  =       596.16534815
  Solvation  Ediel_sol  =         0.00000000
  ---------------------------------------------------
  free energy    TOTEN  =       -36.69362084 eV

  energy without entropy =      -36.69362084  energy(sigma->0) =      -36.69362084


--------------------------------------------------------------------------------------------------------




----------------------------------------- Iteration    1(  14)  ---------------------------------------


    POTLOK:  cpu time   31.5002: real time   31.5690
    SETDIJ:  cpu time    0.0060: real time    0.0065
     EDDAV:  cpu time  116.6003: real time  116.8574
       DOS:  cpu time    0.0000: real time    0.0002
    CHARGE:  cpu time    9.0206: real time    9.0404
    MIXING:  cpu time    1.7507: real time    1.7554
    --------------------------------------------
      LOOP:  cpu time  158.8788: real time  159.2333

 eigenvalue-minimisations  :   128
 total energy-change (2. order) :-0.4245697E-02  (-0.5496479E-04)
 number of electron      15.9999994 magnetization 
 augmentation part        0.4371893 magnetization 

 Broyden mixing:
  rms(total) = 0.23659E-02    rms(broyden)= 0.23654E-02
  rms(prec ) = 0.33758E-02
  weight for this iteration     100.00

 eigenvalues of (default mixing * dielectric matrix)
  average eigenvalue GAMMA=   1.8823
  5.2315  2.8546  2.3308  1.5159  1.4353  0.8414  0.8414  0.9447  0.9447

 Free energy of the ion-electron system (eV)
  ---------------------------------------------------
  alpha Z        PSCENC =         0.04144063
  Ewald energy   TEWEN  =       673.02408710
  -Hartree energ DENC   =     -1153.34659843
  -exchange      EXHF   =         0.00000000
  -V(xc)+E(xc)   XCENC  =        54.97900489
  PAW double counting   =      1373.14194629    -1375.94188879
  entropy T*S    EENTRO =         0.00000000
  eigenvalues    EBANDS =      -204.76120637
  atomic energy  EATOM  =       596.16534815
  Solvation  Ediel_sol  =         0.00000000
  ---------------------------------------------------
  free energy    TOTEN  =       -36.69786654 eV

  energy without entropy =      -36.69786654  energy(sigma->0) =      -36.69786654


--------------------------------------------------------------------------------------------------------




----------------------------------------- Iteration    1(  15)  ---------------------------------------


    POTLOK:  cpu time   31.0723: real time   31.1399
    SETDIJ:  cpu time    0.0070: real time    0.0065
     EDDAV:  cpu time  118.4270: real time  118.6896
       DOS:  cpu time    0.0000: real time    0.0002
    CHARGE:  cpu time    8.9396: real time    8.9601
    MIXING:  cpu time    2.0147: real time    2.0188
    --------------------------------------------
      LOOP:  cpu time  160.4636: real time  160.8197

 eigenvalue-minimisations  :   128
 total energy-change (2. order) :-0.3000790E-02  (-0.2874780E-04)
 number of electron      15.9999995 magnetization 
 augmentation part        0.4371252 magnetization 

 Broyden mixing:
  rms(total) = 0.14572E-02    rms(broyden)= 0.14571E-02
  rms(prec ) = 0.20469E-02
  weight for this iteration     100.00

 eigenvalues of (default mixing * dielectric matrix)
  average eigenvalue GAMMA=   2.0008
  6.1902  3.1872  2.2900  1.6374  1.5440  1.5440  0.8470  0.8470  0.9604  0.9604

 Free energy of the ion-electron system (eV)
  ---------------------------------------------------
  alpha Z        PSCENC =         0.04144063
  Ewald energy   TEWEN  =       673.02408710
  -Hartree energ DENC   =     -1153.45267520
  -exchange      EXHF   =         0.00000000
  -V(xc)+E(xc)   XCENC  =        54.97481912
  PAW double counting   =      1373.04989945    -1375.85051346
  entropy T*S    EENTRO =         0.00000000
  eigenvalues    EBANDS =      -204.65327313
  atomic energy  EATOM  =       596.16534815
  Solvation  Ediel_sol  =         0.00000000
  ---------------------------------------------------
  free energy    TOTEN  =       -36.70086733 eV

  energy without entropy =      -36.70086733  energy(sigma->0) =      -36.70086733


--------------------------------------------------------------------------------------------------------




----------------------------------------- Iteration    1(  16)  ---------------------------------------


    POTLOK:  cpu time   30.9783: real time   31.0466
    SETDIJ:  cpu time    0.0060: real time    0.0067
     EDDAV:  cpu time  115.9054: real time  116.1589
       DOS:  cpu time    0.0000: real time    0.0002
    CHARGE:  cpu time    8.8846: real time    8.9039
    MIXING:  cpu time    2.1677: real time    2.1728
    --------------------------------------------
      LOOP:  cpu time  157.9450: real time  158.2939

 eigenvalue-minimisations  :   128
 total energy-change (2. order) :-0.2247794E-02  (-0.2596113E-04)
 number of electron      15.9999995 magnetization 
 augmentation part        0.4370108 magnetization 

 Broyden mixing:
  rms(total) = 0.10480E-02    rms(broyden)= 0.10469E-02
  rms(prec ) = 0.12958E-02
  weight for this iteration     100.00

 eigenvalues of (default mixing * dielectric matrix)
  average eigenvalue GAMMA=   2.1214
  7.2262  3.6974  2.4500  2.2549  1.4777  1.3127  1.3127  0.8335  0.8582  0.9559
  0.9559

 Free energy of the ion-electron system (eV)
  ---------------------------------------------------
  alpha Z        PSCENC =         0.04144063
  Ewald energy   TEWEN  =       673.02408710
  -Hartree energ DENC   =     -1153.51219061
  -exchange      EXHF   =         0.00000000
  -V(xc)+E(xc)   XCENC  =        54.97190050
  PAW double counting   =      1373.29205589    -1376.09256966
  entropy T*S    EENTRO =         0.00000000
  eigenvalues    EBANDS =      -204.59318713
  atomic energy  EATOM  =       596.16534815
  Solvation  Ediel_sol  =         0.00000000
  ---------------------------------------------------
  free energy    TOTEN  =       -36.70311512 eV

  energy without entropy =      -36.70311512  energy(sigma->0) =      -36.70311512


--------------------------------------------------------------------------------------------------------




----------------------------------------- Iteration    1(  17)  ---------------------------------------


    POTLOK:  cpu time   27.3698: real time   27.4281
    SETDIJ:  cpu time    0.0070: real time    0.0068
     EDDAV:  cpu time   96.5163: real time   96.7304
       DOS:  cpu time    0.0000: real time    0.0002
    CHARGE:  cpu time    8.7917: real time    8.8115
    MIXING:  cpu time    1.6058: real time    1.6086
    --------------------------------------------
      LOOP:  cpu time  134.2916: real time  134.5902

 eigenvalue-minimisations  :    96
 total energy-change (2. order) :-0.9048819E-03  (-0.4370935E-05)
 number of electron      15.9999995 magnetization 
 augmentation part        0.4370585 magnetization 

 Broyden mixing:
  rms(total) = 0.39761E-03    rms(broyden)= 0.39753E-03
  rms(prec ) = 0.56565E-03
  weight for this iteration     100.00

 eigenvalues of (default mixing * dielectric matrix)
  average eigenvalue GAMMA=   2.1647
  7.7968  4.0623  2.5648  2.0004  2.0004  1.3663  1.3663  0.8285  0.8730  0.9961
  1.0608  1.0608

 Free energy of the ion-electron system (eV)
  ---------------------------------------------------
  alpha Z        PSCENC =         0.04144063
  Ewald energy   TEWEN  =       673.02408710
  -Hartree energ DENC   =     -1153.51206976
  -exchange      EXHF   =         0.00000000
  -V(xc)+E(xc)   XCENC  =        54.96945427
  PAW double counting   =      1373.75047037    -1376.55066717
  entropy T*S    EENTRO =         0.00000000
  eigenvalues    EBANDS =      -204.59208360
  atomic energy  EATOM  =       596.16534815
  Solvation  Ediel_sol  =         0.00000000
  ---------------------------------------------------
  free energy    TOTEN  =       -36.70402001 eV

  energy without entropy =      -36.70402001  energy(sigma->0) =      -36.70402001


--------------------------------------------------------------------------------------------------------




----------------------------------------- Iteration    1(  18)  ---------------------------------------


    POTLOK:  cpu time   25.3731: real time   25.4297
    SETDIJ:  cpu time    0.0070: real time    0.0068
     EDDAV:  cpu time   81.3896: real time   81.5688
       DOS:  cpu time    0.0000: real time    0.0002
    CHARGE:  cpu time    7.5299: real time    7.5480
    MIXING:  cpu time    2.1337: real time    2.1385
    --------------------------------------------
      LOOP:  cpu time  116.4353: real time  116.6963

 eigenvalue-minimisations  :    80
 total energy-change (2. order) :-0.4596458E-03  (-0.2638999E-05)
 number of electron      15.9999995 magnetization 
 augmentation part        0.4370465 magnetization 

 Broyden mixing:
  rms(total) = 0.29167E-03    rms(broyden)= 0.29161E-03
  rms(prec ) = 0.37764E-03
  weight for this iteration     100.00

 eigenvalues of (default mixing * dielectric matrix)
  average eigenvalue GAMMA=   2.2668
  8.3088  4.8089  2.9255  2.5664  2.0647  1.5489  1.3150  1.3150  0.8271  0.8847
  0.9315  0.9857  0.9857

 Free energy of the ion-electron system (eV)
  ---------------------------------------------------
  alpha Z        PSCENC =         0.04144063
  Ewald energy   TEWEN  =       673.02408710
  -Hartree energ DENC   =     -1153.51445426
  -exchange      EXHF   =         0.00000000
  -V(xc)+E(xc)   XCENC  =        54.96896692
  PAW double counting   =      1373.69616642    -1376.49646493
  entropy T*S    EENTRO =         0.00000000
  eigenvalues    EBANDS =      -204.58956969
  atomic energy  EATOM  =       596.16534815
  Solvation  Ediel_sol  =         0.00000000
  ---------------------------------------------------
  free energy    TOTEN  =       -36.70447965 eV

  energy without entropy =      -36.70447965  energy(sigma->0) =      -36.70447965


--------------------------------------------------------------------------------------------------------




----------------------------------------- Iteration    1(  19)  ---------------------------------------


    POTLOK:  cpu time   29.2785: real time   29.3426
    SETDIJ:  cpu time    0.0060: real time    0.0067
     EDDAV:  cpu time   76.7943: real time   76.9573
       DOS:  cpu time    0.0000: real time    0.0002
    CHARGE:  cpu time    7.6048: real time    7.6212
    MIXING:  cpu time    2.0517: real time    2.0553
    --------------------------------------------
      LOOP:  cpu time  115.7364: real time  115.9875

 eigenvalue-minimisations  :    80
 total energy-change (2. order) :-0.2606758E-03  (-0.1238750E-05)
 number of electron      15.9999995 magnetization 
 augmentation part        0.4370398 magnetization 

 Broyden mixing:
  rms(total) = 0.15941E-03    rms(broyden)= 0.15927E-03
  rms(prec ) = 0.19954E-03
  weight for this iteration     100.00

 eigenvalues of (default mixing * dielectric matrix)
  average eigenvalue GAMMA=   2.2970
  8.5665  5.1519  3.2329  2.3270  2.3270  1.9377  1.4395  1.2766  1.2766  0.9926
  0.9926  0.8289  0.8745  0.9334

 Free energy of the ion-electron system (eV)
  ---------------------------------------------------
  alpha Z        PSCENC =         0.04144063
  Ewald energy   TEWEN  =       673.02408710
  -Hartree energ DENC   =     -1153.50940003
  -exchange      EXHF   =         0.00000000
  -V(xc)+E(xc)   XCENC  =        54.96840117
  PAW double counting   =      1373.47294204    -1376.27319275
  entropy T*S    EENTRO =         0.00000000
  eigenvalues    EBANDS =      -204.59436665
  atomic energy  EATOM  =       596.16534815
  Solvation  Ediel_sol  =         0.00000000
  ---------------------------------------------------
  free energy    TOTEN  =       -36.70474033 eV

  energy without entropy =      -36.70474033  energy(sigma->0) =      -36.70474033


--------------------------------------------------------------------------------------------------------




----------------------------------------- Iteration    1(  20)  ---------------------------------------


    POTLOK:  cpu time   27.5168: real time   27.5750
    SETDIJ:  cpu time    0.0060: real time    0.0065
     EDDAV:  cpu time   89.9283: real time   90.1228
       DOS:  cpu time    0.0000: real time    0.0002
    CHARGE:  cpu time    8.5757: real time    8.5933
    MIXING:  cpu time    2.5666: real time    2.5719
    --------------------------------------------
      LOOP:  cpu time  128.5945: real time  128.8737

 eigenvalue-minimisations  :    88
 total energy-change (2. order) :-0.1093398E-03  (-0.3327937E-06)
 number of electron      15.9999995 magnetization 
 augmentation part        0.4370409 magnetization 

 Broyden mixing:
  rms(total) = 0.15777E-03    rms(broyden)= 0.15776E-03
  rms(prec ) = 0.17458E-03
  weight for this iteration     100.00

 eigenvalues of (default mixing * dielectric matrix)
  average eigenvalue GAMMA=   2.3316
  8.7420  5.7117  3.4788  2.5840  2.5840  2.0526  1.5921  1.3147  1.3147  1.0099
  1.0099  0.8294  0.8682  0.9413  0.9413

 Free energy of the ion-electron system (eV)
  ---------------------------------------------------
  alpha Z        PSCENC =         0.04144063
  Ewald energy   TEWEN  =       673.02408710
  -Hartree energ DENC   =     -1153.51348351
  -exchange      EXHF   =         0.00000000
  -V(xc)+E(xc)   XCENC  =        54.96838475
  PAW double counting   =      1373.51891496    -1376.31916893
  entropy T*S    EENTRO =         0.00000000
  eigenvalues    EBANDS =      -204.59037281
  atomic energy  EATOM  =       596.16534815
  Solvation  Ediel_sol  =         0.00000000
  ---------------------------------------------------
  free energy    TOTEN  =       -36.70484967 eV

  energy without entropy =      -36.70484967  energy(sigma->0) =      -36.70484967


--------------------------------------------------------------------------------------------------------




----------------------------------------- Iteration    1(  21)  ---------------------------------------


    POTLOK:  cpu time   27.8498: real time   27.9089
    SETDIJ:  cpu time    0.0070: real time    0.0064
     EDDAV:  cpu time   70.6043: real time   70.7541
       DOS:  cpu time    0.0000: real time    0.0002
    --------------------------------------------
      LOOP:  cpu time   98.4610: real time   98.6738

 eigenvalue-minimisations  :    72
 total energy-change (2. order) :-0.4396655E-04  (-0.1284436E-06)
 number of electron      15.9999995 magnetization 
 augmentation part        0.4370409 magnetization 

 Free energy of the ion-electron system (eV)
  ---------------------------------------------------
  alpha Z        PSCENC =         0.04144063
  Ewald energy   TEWEN  =       673.02408710
  -Hartree energ DENC   =     -1153.51392888
  -exchange      EXHF   =         0.00000000
  -V(xc)+E(xc)   XCENC  =        54.96826777
  PAW double counting   =      1373.51543781    -1376.31572437
  entropy T*S    EENTRO =         0.00000000
  eigenvalues    EBANDS =      -204.58982184
  atomic energy  EATOM  =       596.16534815
  Solvation  Ediel_sol  =         0.00000000
  ---------------------------------------------------
  free energy    TOTEN  =       -36.70489363 eV

  energy without entropy =      -36.70489363  energy(sigma->0) =      -36.70489363


--------------------------------------------------------------------------------------------------------




 average (electrostatic) potential at core
  the test charge radii are     0.5201  0.6991  0.7089
  (the norm of the test charge is              1.0000)
       1 -43.1701       2 -43.1691       3 -43.1689       4 -60.0783       5 -60.0727
       6 -73.2257
 
 
 
 E-fermi :  -7.1123     XC(G=0):  -0.0875     alpha+bet : -0.0137


 k-point     1 :       0.2500    0.2500    0.2500
  band No.  band energies     occupation 
      1     -22.5244      2.00000
      2     -19.3778      2.00000
      3     -12.8309      2.00000
      4     -11.4699      2.00000
      5     -11.4693      2.00000
      6      -8.4942      2.00000
      7      -8.0643      2.00000
      8      -8.0641      2.00000
      9      -0.8363      0.00000
     10      -0.4701      0.00000
     11      -0.4698      0.00000
     12      -0.0091      0.00000

 k-point     2 :      -0.2500    0.2500    0.2500
  band No.  band energies     occupation 
      1     -22.5244      2.00000
      2     -19.3778      2.00000
      3     -12.8309      2.00000
      4     -11.4699      2.00000
      5     -11.4693      2.00000
      6      -8.4942      2.00000
      7      -8.0643      2.00000
      8      -8.0641      2.00000
      9      -0.8363      0.00000
     10      -0.4701      0.00000
     11      -0.4698      0.00000
     12      -0.0092      0.00000

 k-point     3 :       0.2500   -0.2500    0.2500
  band No.  band energies     occupation 
      1     -22.5244      2.00000
      2     -19.3778      2.00000
      3     -12.8309      2.00000
      4     -11.4699      2.00000
      5     -11.4694      2.00000
      6      -8.4942      2.00000
      7      -8.0643      2.00000
      8      -8.0641      2.00000
      9      -0.8363      0.00000
     10      -0.4701      0.00000
     11      -0.4698      0.00000
     12      -0.0090      0.00000

 k-point     4 :      -0.2500   -0.2500    0.2500
  band No.  band energies     occupation 
      1     -22.5244      2.00000
      2     -19.3778      2.00000
      3     -12.8309      2.00000
      4     -11.4699      2.00000
      5     -11.4694      2.00000
      6      -8.4942      2.00000
      7      -8.0643      2.00000
      8      -8.0641      2.00000
      9      -0.8363      0.00000
     10      -0.4701      0.00000
     11      -0.4697      0.00000
     12      -0.0092      0.00000


--------------------------------------------------------------------------------------------------------


 soft charge-density along one line, spin component           1
         0         1         2         3         4         5         6         7         8         9
 total charge-density along one line
 
 pseudopotential strength for first ion, spin component:           1
 -2.364  -4.078  -0.002   0.000  -0.001
 -4.078  -6.948  -0.005   0.001  -0.002
 -0.002  -0.005  -0.330  -0.001   0.002
  0.000   0.001  -0.001  -0.334   0.000
 -0.001  -0.002   0.002   0.000  -0.333
 total augmentation occupancy for first ion, spin component:           1
  3.480  -0.626   0.400  -0.089   0.152
 -0.626   0.129  -0.074   0.017  -0.028
  0.400  -0.074   0.048  -0.009   0.015
 -0.089   0.017  -0.009   0.011  -0.003
  0.152  -0.028   0.015  -0.003   0.013


------------------------ aborting loop because EDIFF is reached ----------------------------------------


    CHARGE:  cpu time    8.2038: real time    8.2201
    FORLOC:  cpu time    2.7386: real time    2.7456
    FORNL :  cpu time   23.7124: real time   23.7627
    STRESS:  cpu time   57.5083: real time   57.6263
    FORCOR:  cpu time   19.4240: real time   19.4608
    FORHAR:  cpu time    6.7480: real time    6.7601
    MIXING:  cpu time    1.3858: real time    1.3888
    OFIELD:  cpu time    0.0000: real time    0.0000

  FORCE on cell =-STRESS in cart. coord.  units (eV):
  Direction    XX          YY          ZZ          XY          YZ          ZX
  --------------------------------------------------------------------------------------
  Alpha Z     0.04144     0.04144     0.04144
  Ewald     596.87531    36.69303    39.45549    12.55317     0.91825    41.14095
  Hartree   585.51348   283.25773   284.74360     6.76655     0.49712    22.10333
  E(xc)     -58.97009   -60.32351   -60.31679     0.03028     0.00221     0.09995
  Local   -1325.04444  -492.79567  -496.89409   -18.64653    -1.36726   -61.01200
  n-local   -28.21370   -24.79770   -24.81484    -0.07517    -0.00569    -0.25275
  augment     0.40980     0.39308     0.39473     0.00035     0.00008     0.00123
  Kinetic   228.46039   256.59449   256.44935    -0.62592    -0.04491    -2.07993
  Fock        0.00000     0.00000     0.00000     0.00000     0.00000     0.00000
  -------------------------------------------------------------------------------------
  Total      -0.92781    -0.93711    -0.94110     0.00274    -0.00020     0.00079
  in kB      -0.05506    -0.05561    -0.05585     0.00016    -0.00001     0.00005
  external pressure =       -0.06 kB  Pullay stress =        0.00 kB


 VOLUME and BASIS-vectors are now :
 -----------------------------------------------------------------------------
  energy-cutoff  :      400.00
  volume of cell :    27000.00
      direct lattice vectors                 reciprocal lattice vectors
    30.000000000  0.000000000  0.000000000     0.033333333  0.000000000  0.000000000
     0.000000000 30.000000000  0.000000000     0.000000000  0.033333333  0.000000000
     0.000000000  0.000000000 30.000000000     0.000000000  0.000000000  0.033333333

  length of vectors
    30.000000000 30.000000000 30.000000000     0.033333333  0.033333333  0.033333333


 FORCES acting on ions
    electron-ion (+dipol)            ewald-force                    non-local-force                 convergence-correction
 -----------------------------------------------------------------------------------------------
   0.323E+02 0.550E+02 -.114E+02   -.342E+02 -.601E+02 0.125E+02   0.195E+01 0.512E+01 -.114E+01   0.799E-04 0.424E-04 -.198E-05
   0.289E+02 -.145E+02 0.561E+02   -.306E+02 0.159E+02 -.613E+02   0.164E+01 -.138E+01 0.517E+01   0.739E-04 -.125E-04 0.455E-04
   0.363E+02 -.382E+02 -.376E+02   -.386E+02 0.418E+02 0.412E+02   0.233E+01 -.360E+01 -.359E+01   0.802E-04 -.306E-04 -.199E-04
   0.965E+02 0.217E+01 0.712E+01   -.101E+03 -.227E+01 -.745E+01   0.448E+01 0.101E+00 0.331E+00   0.529E-03 -.261E-04 0.690E-04
   0.662E+02 0.141E+01 0.495E+01   -.684E+02 -.145E+01 -.511E+01   0.212E+01 0.419E-01 0.160E+00   -.935E-03 -.334E-04 -.529E-04
   -.232E+03 -.520E+01 -.171E+02   0.273E+03 0.610E+01 0.201E+02   -.404E+02 -.904E+00 -.298E+01   -.420E-03 -.185E-04 -.145E-04
 -----------------------------------------------------------------------------------------------
   0.279E+02 0.615E+00 0.207E+01   0.000E+00 0.000E+00 0.711E-14   -.279E+02 -.624E+00 -.206E+01   -.592E-03 -.787E-04 0.252E-04
 
 
 POSITION                                       TOTAL-FORCE (eV/Angst)
 -----------------------------------------------------------------------------------
     14.13442     13.98356     15.18866        -0.001355      0.001478     -0.001081
     14.19575     15.26384     13.94514         0.001523      0.001109     -0.000721
     14.05954     15.70121     15.67121         0.000504      0.001178     -0.001024
     14.51002     14.99161     14.96272         0.000976      0.001215     -0.000320
     15.95915     15.02459     15.06918        -0.008546     -0.002131      0.000406
     17.12231     15.05053     15.15507         0.006898     -0.002848      0.002741
 -----------------------------------------------------------------------------------
    total drift:                               -0.003347     -0.008229      0.006537


--------------------------------------------------------------------------------------------------------



  FREE ENERGIE OF THE ION-ELECTRON SYSTEM (eV)
  ---------------------------------------------------
  free  energy   TOTEN  =       -36.70489363 eV

  energy  without entropy=      -36.70489363  energy(sigma->0) =      -36.70489363
 


--------------------------------------------------------------------------------------------------------


    POTLOK:  cpu time   16.5165: real time   16.5477


--------------------------------------------------------------------------------------------------------


 NEB: the previous image is higher in energy: T
 NEB: the next image is higher in energy    : F
 NEB: only prev energy greater

 NEB: Tangent
 ----------------------------------------------
     -0.28576      0.26757      0.27106
     -0.09607      0.07572      0.06947
      0.26951      0.38452      0.03691
     -0.02655      0.14062      0.06626
      0.01667     -0.24836     -0.15164
      0.04910     -0.56352     -0.31914

 NEB: forces: par spring, perp REAL, dneb     0.001665    0.012225    0.000000
 NEB: distance to prev, next image, angle between     0.253015    0.253348  134.636127
 NEB: projections on to tangent (spring, REAL)     0.001665    0.002446

 stress matrix after NEB project (eV)
     -0.92781      0.00274      0.00079
      0.00274     -0.93711     -0.00020
      0.00079     -0.00020     -0.94110
  FORCES: max atom, RMS     0.008791    0.005037
  FORCE total and by dimension    0.012338    0.008559
  Stress total and by dimension    1.620092    0.941104
 
 OPT: Flag T
 OPT: FIRE Step
 OPT: FIRE, TIMESTEP      0.10000
 OPT: FIRE, alpha         0.10000


--------------------------------------------------------------------------------------------------------


    WAVPRE:  cpu time    8.2377: real time    8.5322
 FEWALD executed in parallel
    FEWALD:  cpu time    0.0000: real time    0.0004
    ORTHCH:  cpu time    6.2241: real time    7.1778
     LOOP+:  cpu time 3187.4144: real time 3195.7022


----------------------------------------- Iteration    2(   1)  ---------------------------------------


    POTLOK:  cpu time   36.2245: real time   38.6165
    SETDIJ:  cpu time    0.0070: real time    0.0068
     EDDAV:  cpu time   65.7880: real time   68.6782
       DOS:  cpu time    0.0000: real time    0.0002
    CHARGE:  cpu time    5.7221: real time    5.7341
    MIXING:  cpu time    0.8819: real time    0.8834
    --------------------------------------------
      LOOP:  cpu time  108.6255: real time  113.9214

 eigenvalue-minimisations  :    84
 total energy-change (2. order) :-0.6744537E-04  (-0.5700583E-05)
 number of electron      15.9999994 magnetization 
 augmentation part        0.4369843 magnetization 

 Broyden mixing:
  rms(total) = 0.28841E-03    rms(broyden)= 0.28779E-03
  rms(prec ) = 0.29447E-03
  weight for this iteration     100.00

 Free energy of the ion-electron system (eV)
  ---------------------------------------------------
  alpha Z        PSCENC =         0.04144063
  Ewald energy   TEWEN  =       673.00064252
  -Hartree energ DENC   =     -1153.50025055
  -exchange      EXHF   =         0.00000000
  -V(xc)+E(xc)   XCENC  =        54.96777004
  PAW double counting   =      1373.49504486    -1376.29532787
  entropy T*S    EENTRO =         0.00000000
  eigenvalues    EBANDS =      -204.57958489
  atomic energy  EATOM  =       596.16534815
  Solvation  Ediel_sol  =         0.00000000
  ---------------------------------------------------
  free energy    TOTEN  =       -36.70491711 eV

  energy without entropy =      -36.70491711  energy(sigma->0) =      -36.70491711


--------------------------------------------------------------------------------------------------------




----------------------------------------- Iteration    2(   2)  ---------------------------------------


    POTLOK:  cpu time   32.0851: real time   35.8919
    SETDIJ:  cpu time    0.0070: real time    0.0063
     EDDAV:  cpu time   75.1426: real time   78.6211
       DOS:  cpu time    0.0000: real time    0.0002
    CHARGE:  cpu time    5.9681: real time    5.9800
    MIXING:  cpu time    1.0108: real time    1.0133
    --------------------------------------------
      LOOP:  cpu time  114.2156: real time  121.5162

 eigenvalue-minimisations  :    92
 total energy-change (2. order) :-0.5671720E-05  (-0.2841406E-06)
 number of electron      15.9999994 magnetization 
 augmentation part        0.4369869 magnetization 

 Broyden mixing:
  rms(total) = 0.16298E-03    rms(broyden)= 0.16278E-03
  rms(prec ) = 0.16694E-03
  weight for this iteration     100.00

 eigenvalues of (default mixing * dielectric matrix)
  average eigenvalue GAMMA=   1.2409
  1.2409

 Free energy of the ion-electron system (eV)
  ---------------------------------------------------
  alpha Z        PSCENC =         0.04144063
  Ewald energy   TEWEN  =       673.00064252
  -Hartree energ DENC   =     -1153.49723082
  -exchange      EXHF   =         0.00000000
  -V(xc)+E(xc)   XCENC  =        54.96755463
  PAW double counting   =      1373.42948985    -1376.22969253
  entropy T*S    EENTRO =         0.00000000
  eigenvalues    EBANDS =      -204.58247520
  atomic energy  EATOM  =       596.16534815
  Solvation  Ediel_sol  =         0.00000000
  ---------------------------------------------------
  free energy    TOTEN  =       -36.70492278 eV

  energy without entropy =      -36.70492278  energy(sigma->0) =      -36.70492278


--------------------------------------------------------------------------------------------------------




----------------------------------------- Iteration    2(   3)  ---------------------------------------


    POTLOK:  cpu time   34.5198: real time   34.5884
[...]
  Solvation  Ediel_sol  =         0.00000000
  ---------------------------------------------------
  free energy    TOTEN  =       -36.70500558 eV

  energy without entropy =      -36.70500558  energy(sigma->0) =      -36.70500558


--------------------------------------------------------------------------------------------------------




----------------------------------------- Iteration   74(   2)  ---------------------------------------


    POTLOK:  cpu time   22.8295: real time   22.8724
    SETDIJ:  cpu time    0.0060: real time    0.0065
     EDDAV:  cpu time   36.5374: real time   36.6084
       DOS:  cpu time    0.0000: real time    0.0002
    CHARGE:  cpu time    5.1272: real time    5.1382
    MIXING:  cpu time    0.5619: real time    0.5622
    --------------------------------------------
      LOOP:  cpu time   65.0631: real time   65.1910

 eigenvalue-minimisations  :    48
 total energy-change (2. order) :-0.5001223E-06  (-0.5512942E-06)
 number of electron      15.9999997 magnetization 
 augmentation part        0.4370207 magnetization 

 Broyden mixing:
  rms(total) = 0.12788E-03    rms(broyden)= 0.12775E-03
  rms(prec ) = 0.12969E-03
  weight for this iteration     100.00

 eigenvalues of (default mixing * dielectric matrix)
  average eigenvalue GAMMA=   1.2823
  1.2823

 Free energy of the ion-electron system (eV)
  ---------------------------------------------------
  alpha Z        PSCENC =         0.04144063
  Ewald energy   TEWEN  =       673.01322400
  -Hartree energ DENC   =     -1153.50531391
  -exchange      EXHF   =         0.00000000
  -V(xc)+E(xc)   XCENC  =        54.96784068
  PAW double counting   =      1373.43006662    -1376.23026801
  entropy T*S    EENTRO =         0.00000000
  eigenvalues    EBANDS =      -204.58734424
  atomic energy  EATOM  =       596.16534815
  Solvation  Ediel_sol  =         0.00000000
  ---------------------------------------------------
  free energy    TOTEN  =       -36.70500608 eV

  energy without entropy =      -36.70500608  energy(sigma->0) =      -36.70500608


--------------------------------------------------------------------------------------------------------




----------------------------------------- Iteration   74(   3)  ---------------------------------------


    POTLOK:  cpu time   20.9768: real time   21.0173
    SETDIJ:  cpu time    0.0060: real time    0.0062
     EDDAV:  cpu time   36.2845: real time   36.3541
       DOS:  cpu time    0.0000: real time    0.0002
    CHARGE:  cpu time    5.0002: real time    5.0100
    MIXING:  cpu time    0.6399: real time    0.6407
    --------------------------------------------
      LOOP:  cpu time   62.9094: real time   63.0320

 eigenvalue-minimisations  :    48
 total energy-change (2. order) :-0.6970618E-07  (-0.6265301E-07)
 number of electron      15.9999997 magnetization 
 augmentation part        0.4370210 magnetization 

 Broyden mixing:
  rms(total) = 0.67769E-04    rms(broyden)= 0.67742E-04
  rms(prec ) = 0.69350E-04
  weight for this iteration     100.00

 eigenvalues of (default mixing * dielectric matrix)
  average eigenvalue GAMMA=   1.7044
  0.9518  2.4570

 Free energy of the ion-electron system (eV)
  ---------------------------------------------------
  alpha Z        PSCENC =         0.04144063
  Ewald energy   TEWEN  =       673.01322400
  -Hartree energ DENC   =     -1153.50528340
  -exchange      EXHF   =         0.00000000
  -V(xc)+E(xc)   XCENC  =        54.96783871
  PAW double counting   =      1373.42980540    -1376.23000624
  entropy T*S    EENTRO =         0.00000000
  eigenvalues    EBANDS =      -204.58737339
  atomic energy  EATOM  =       596.16534815
  Solvation  Ediel_sol  =         0.00000000
  ---------------------------------------------------
  free energy    TOTEN  =       -36.70500615 eV

  energy without entropy =      -36.70500615  energy(sigma->0) =      -36.70500615


--------------------------------------------------------------------------------------------------------




----------------------------------------- Iteration   74(   4)  ---------------------------------------


    POTLOK:  cpu time   20.7508: real time   20.7892
    SETDIJ:  cpu time    0.0060: real time    0.0062
     EDDAV:  cpu time   35.2126: real time   35.2797
       DOS:  cpu time    0.0000: real time    0.0002
    CHARGE:  cpu time    4.9253: real time    4.9346
    MIXING:  cpu time    0.6889: real time    0.6909
    --------------------------------------------
      LOOP:  cpu time   61.5836: real time   61.7044

 eigenvalue-minimisations  :    48
 total energy-change (2. order) :-0.1187414E-07  (-0.1597121E-07)
 number of electron      15.9999997 magnetization 
 augmentation part        0.4370209 magnetization 

 Broyden mixing:
  rms(total) = 0.14702E-04    rms(broyden)= 0.14667E-04
  rms(prec ) = 0.15237E-04
  weight for this iteration     100.00

 eigenvalues of (default mixing * dielectric matrix)
  average eigenvalue GAMMA=   1.4527
  2.2095  0.8974  1.2513

 Free energy of the ion-electron system (eV)
  ---------------------------------------------------
  alpha Z        PSCENC =         0.04144063
  Ewald energy   TEWEN  =       673.01322400
  -Hartree energ DENC   =     -1153.50529703
  -exchange      EXHF   =         0.00000000
  -V(xc)+E(xc)   XCENC  =        54.96784011
  PAW double counting   =      1373.42958444    -1376.22978540
  entropy T*S    EENTRO =         0.00000000
  eigenvalues    EBANDS =      -204.58736106
  atomic energy  EATOM  =       596.16534815
  Solvation  Ediel_sol  =         0.00000000
  ---------------------------------------------------
  free energy    TOTEN  =       -36.70500616 eV

  energy without entropy =      -36.70500616  energy(sigma->0) =      -36.70500616


--------------------------------------------------------------------------------------------------------




----------------------------------------- Iteration   74(   5)  ---------------------------------------


    POTLOK:  cpu time   22.7055: real time   22.7499
    SETDIJ:  cpu time    0.0070: real time    0.0068
     EDDAV:  cpu time   35.1926: real time   35.2603
       DOS:  cpu time    0.0000: real time    0.0002
    CHARGE:  cpu time    5.1212: real time    5.1321
    MIXING:  cpu time    0.7159: real time    0.7164
    --------------------------------------------
      LOOP:  cpu time   63.7453: real time   63.8697

 eigenvalue-minimisations  :    48
 total energy-change (2. order) :-0.2856723E-08  (-0.6052557E-08)
 number of electron      15.9999997 magnetization 
 augmentation part        0.4370210 magnetization 

 Broyden mixing:
  rms(total) = 0.13956E-04    rms(broyden)= 0.13944E-04
  rms(prec ) = 0.14533E-04
  weight for this iteration     100.00

 eigenvalues of (default mixing * dielectric matrix)
  average eigenvalue GAMMA=   1.3652
  1.9029  1.9029  1.0353  0.6198

 Free energy of the ion-electron system (eV)
  ---------------------------------------------------
  alpha Z        PSCENC =         0.04144063
  Ewald energy   TEWEN  =       673.01322400
  -Hartree energ DENC   =     -1153.50529538
  -exchange      EXHF   =         0.00000000
  -V(xc)+E(xc)   XCENC  =        54.96784001
  PAW double counting   =      1373.42963029    -1376.22983123
  entropy T*S    EENTRO =         0.00000000
  eigenvalues    EBANDS =      -204.58736263
  atomic energy  EATOM  =       596.16534815
  Solvation  Ediel_sol  =         0.00000000
  ---------------------------------------------------
  free energy    TOTEN  =       -36.70500616 eV

  energy without entropy =      -36.70500616  energy(sigma->0) =      -36.70500616


--------------------------------------------------------------------------------------------------------




----------------------------------------- Iteration   74(   6)  ---------------------------------------


    POTLOK:  cpu time   22.5476: real time   22.5909
    SETDIJ:  cpu time    0.0060: real time    0.0062
     EDDAV:  cpu time   35.4056: real time   35.4743
       DOS:  cpu time    0.0000: real time    0.0002
    --------------------------------------------
      LOOP:  cpu time   57.9612: real time   58.0752

 eigenvalue-minimisations  :    48
 total energy-change (2. order) : 0.1137096E-08  (-0.2746368E-08)
 number of electron      15.9999997 magnetization 
 augmentation part        0.4370210 magnetization 

 Free energy of the ion-electron system (eV)
  ---------------------------------------------------
  alpha Z        PSCENC =         0.04144063
  Ewald energy   TEWEN  =       673.01322400
  -Hartree energ DENC   =     -1153.50529515
  -exchange      EXHF   =         0.00000000
  -V(xc)+E(xc)   XCENC  =        54.96784027
  PAW double counting   =      1373.42971536    -1376.22991634
  entropy T*S    EENTRO =         0.00000000
  eigenvalues    EBANDS =      -204.58736308
  atomic energy  EATOM  =       596.16534815
  Solvation  Ediel_sol  =         0.00000000
  ---------------------------------------------------
  free energy    TOTEN  =       -36.70500616 eV

  energy without entropy =      -36.70500616  energy(sigma->0) =      -36.70500616


--------------------------------------------------------------------------------------------------------




 average (electrostatic) potential at core
  the test charge radii are     0.5201  0.6991  0.7089
  (the norm of the test charge is              1.0000)
       1 -43.1704       2 -43.1692       3 -43.1689       4 -60.0787       5 -60.0728
       6 -73.2254
 
 
 
 E-fermi :  -7.0926     XC(G=0):  -0.0604     alpha+bet : -0.0137


 k-point     1 :       0.2500    0.2500    0.2500
  band No.  band energies     occupation 
      1     -22.5236      2.00000
      2     -19.3780      2.00000
      3     -12.8312      2.00000
      4     -11.4701      2.00000
      5     -11.4694      2.00000
      6      -8.4941      2.00000
      7      -8.0638      2.00000
      8      -8.0636      2.00000
      9      -0.8358      0.00000
     10      -0.4705      0.00000
     11      -0.4702      0.00000
     12       0.0206      0.00000

 k-point     2 :      -0.2500    0.2500    0.2500
  band No.  band energies     occupation 
      1     -22.5236      2.00000
      2     -19.3780      2.00000
      3     -12.8312      2.00000
      4     -11.4701      2.00000
      5     -11.4694      2.00000
      6      -8.4941      2.00000
      7      -8.0638      2.00000
      8      -8.0636      2.00000
      9      -0.8358      0.00000
     10      -0.4705      0.00000
     11      -0.4702      0.00000
     12       0.0205      0.00000

 k-point     3 :       0.2500   -0.2500    0.2500
  band No.  band energies     occupation 
      1     -22.5236      2.00000
      2     -19.3780      2.00000
      3     -12.8312      2.00000
      4     -11.4701      2.00000
      5     -11.4694      2.00000
      6      -8.4941      2.00000
      7      -8.0638      2.00000
      8      -8.0636      2.00000
      9      -0.8358      0.00000
     10      -0.4705      0.00000
     11      -0.4702      0.00000
     12       0.0206      0.00000

 k-point     4 :      -0.2500   -0.2500    0.2500
  band No.  band energies     occupation 
      1     -22.5236      2.00000
      2     -19.3780      2.00000
      3     -12.8312      2.00000
      4     -11.4701      2.00000
      5     -11.4694      2.00000
      6      -8.4941      2.00000
      7      -8.0638      2.00000
      8      -8.0636      2.00000
      9      -0.8358      0.00000
     10      -0.4705      0.00000
     11      -0.4702      0.00000
     12       0.0206      0.00000


--------------------------------------------------------------------------------------------------------


 soft charge-density along one line, spin component           1
         0         1         2         3         4         5         6         7         8         9
 total charge-density along one line
 
 pseudopotential strength for first ion, spin component:           1
 -2.364  -4.078  -0.002   0.000  -0.001
 -4.078  -6.948  -0.005   0.001  -0.002
 -0.002  -0.005  -0.330  -0.001   0.002
  0.000   0.001  -0.001  -0.334   0.000
 -0.001  -0.002   0.002   0.000  -0.333
 total augmentation occupancy for first ion, spin component:           1
  3.480  -0.626   0.400  -0.089   0.154
 -0.626   0.129  -0.074   0.016  -0.028
  0.400  -0.074   0.048  -0.009   0.015
 -0.089   0.016  -0.009   0.011  -0.004
  0.154  -0.028   0.015  -0.004   0.013


------------------------ aborting loop because EDIFF is reached ----------------------------------------


    CHARGE:  cpu time    5.2142: real time    5.2238
    FORLOC:  cpu time    2.3376: real time    2.3420
    FORNL :  cpu time   16.8214: real time   16.8551
    STRESS:  cpu time   51.4622: real time   51.5642
    FORCOR:  cpu time   20.6899: real time   20.7355
    FORHAR:  cpu time    7.5439: real time    7.5608
    MIXING:  cpu time    0.7879: real time    0.7899
    OFIELD:  cpu time    0.0000: real time    0.0000

  FORCE on cell =-STRESS in cart. coord.  units (eV):
  Direction    XX          YY          ZZ          XY          YZ          ZX
  --------------------------------------------------------------------------------------
  Alpha Z     0.04144     0.04144     0.04144
  Ewald     596.78998    36.61701    39.60598    10.70638     0.80033    42.15346
  Hartree   585.47075   283.21270   284.82184     5.77104     0.43405    22.64594
  E(xc)     -58.96982   -60.32323   -60.31597     0.02582     0.00192     0.10243
  Local   -1324.92620  -492.67685  -497.11371   -15.90333    -1.19289   -62.51194
  n-local   -28.21200   -24.79674   -24.81391    -0.06417    -0.00475    -0.25876
  augment     0.40992     0.39299     0.39474     0.00043     0.00006     0.00121
  Kinetic   228.46112   256.59617   256.43974    -0.53368    -0.03867    -2.13177
  Fock        0.00000     0.00000     0.00000     0.00000     0.00000     0.00000
  -------------------------------------------------------------------------------------
  Total      -0.93481    -0.93652    -0.93985     0.00250     0.00006     0.00056
  in kB      -0.05547    -0.05557    -0.05577     0.00015     0.00000     0.00003
  external pressure =       -0.06 kB  Pullay stress =        0.00 kB


 VOLUME and BASIS-vectors are now :
 -----------------------------------------------------------------------------
  energy-cutoff  :      400.00
  volume of cell :    27000.00
      direct lattice vectors                 reciprocal lattice vectors
    30.000000000  0.000000000  0.000000000     0.033333333  0.000000000  0.000000000
     0.000000000 30.000000000  0.000000000     0.000000000  0.033333333  0.000000000
     0.000000000  0.000000000 30.000000000     0.000000000  0.000000000  0.033333333

  length of vectors
    30.000000000 30.000000000 30.000000000     0.033333333  0.033333333  0.033333333


 FORCES acting on ions
    electron-ion (+dipol)            ewald-force                    non-local-force                 convergence-correction
 -----------------------------------------------------------------------------------------------
   0.325E+02 0.549E+02 -.113E+02   -.344E+02 -.600E+02 0.125E+02   0.197E+01 0.511E+01 -.114E+01   -.253E-05 0.670E-05 -.304E-05
   0.288E+02 -.146E+02 0.561E+02   -.304E+02 0.160E+02 -.613E+02   0.162E+01 -.139E+01 0.517E+01   0.269E-05 0.353E-05 -.315E-06
   0.363E+02 -.384E+02 -.375E+02   -.386E+02 0.420E+02 0.411E+02   0.232E+01 -.361E+01 -.359E+01   0.227E-05 0.207E-05 -.182E-06
   0.965E+02 0.185E+01 0.729E+01   -.101E+03 -.194E+01 -.763E+01   0.448E+01 0.854E-01 0.339E+00   0.192E-05 0.207E-04 -.618E-05
   0.662E+02 0.120E+01 0.508E+01   -.683E+02 -.124E+01 -.525E+01   0.212E+01 0.363E-01 0.163E+00   -.679E-05 0.204E-03 -.700E-04
   -.232E+03 -.443E+01 -.176E+02   0.273E+03 0.520E+01 0.206E+02   -.404E+02 -.771E+00 -.306E+01   -.133E-05 0.320E-03 -.110E-03
 -----------------------------------------------------------------------------------------------
   0.279E+02 0.524E+00 0.212E+01   0.000E+00 -.266E-14 0.355E-14   -.279E+02 -.532E+00 -.211E+01   -.376E-05 0.557E-03 -.189E-03
 
 
 POSITION                                       TOTAL-FORCE (eV/Angst)
 -----------------------------------------------------------------------------------
     14.13059     13.98649     15.18723        -0.001541      0.000928     -0.000833
     14.19849     15.26642     13.94366         0.001380      0.000987     -0.000556
     14.06071     15.70446     15.66943         0.000361      0.000911     -0.000777
     14.51003     14.99323     14.96183        -0.000016      0.000438     -0.000320
     15.95904     15.02136     15.07086         0.000305     -0.000986      0.000860
     17.12218     15.04348     15.15891        -0.000489     -0.002278      0.001626
 -----------------------------------------------------------------------------------
    total drift:                               -0.003286     -0.007704      0.005437


--------------------------------------------------------------------------------------------------------



  FREE ENERGIE OF THE ION-ELECTRON SYSTEM (eV)
  ---------------------------------------------------
  free  energy   TOTEN  =       -36.70500616 eV

  energy  without entropy=      -36.70500616  energy(sigma->0) =      -36.70500616
 
 d Force = 0.9925969E-06[ 0.984E-06, 0.100E-05]  d Energy = 0.1006277E-05-0.137E-07
 d Force = 0.5275521E-04[ 0.548E-04, 0.507E-04]  d Ewald  = 0.5275521E-04-0.568E-12


--------------------------------------------------------------------------------------------------------


    POTLOK:  cpu time   20.6749: real time   20.7582


--------------------------------------------------------------------------------------------------------


 NEB: the previous image is higher in energy: T
 NEB: the next image is higher in energy    : F
 NEB: only prev energy greater

 NEB: Tangent
 ----------------------------------------------
     -0.30673      0.27109      0.25773
     -0.09541      0.08240      0.05925
      0.29539      0.39068      0.03054
     -0.02467      0.13645      0.05297
      0.01645     -0.26586     -0.15286
      0.04231     -0.55885     -0.27446

 NEB: forces: par spring, perp REAL, dneb     0.002515    0.003928    0.000000
 NEB: distance to prev, next image, angle between     0.254859    0.255362  130.101470
 NEB: projections on to tangent (spring, REAL)     0.002515    0.001850

 stress matrix after NEB project (eV)
     -0.93481      0.00250      0.00056
      0.00250     -0.93652      0.00006
      0.00056      0.00006     -0.93985
  FORCES: max atom, RMS     0.003052    0.001904
  FORCE total and by dimension    0.004664    0.002650
  Stress total and by dimension    1.623041    0.939851
 OPT: skip step - force has converged


--------------------------------------------------------------------------------------------------------


  
 reached required accuracy - stopping structural energy minimisation
     LOOP+:  cpu time  579.5599: real time  580.8800
    4ORBIT:  cpu time    0.0000: real time    0.0000

 total amount of memory used by VASP on root node  3203887. kBytes
========================================================================

   base      :      30000. kBytes
   nonlr-proj:        691. kBytes
   fftplans  :     924480. kBytes
   grid      :    1872000. kBytes
   one-center:         18. kBytes
   wavefun   :     376698. kBytes
 
  
  
 General timing and accounting informations for this job:
 ========================================================
  
                  Total CPU time used (sec):    49338.609
                            User time (sec):    48671.053
                          System time (sec):      667.556
                         Elapsed time (sec):    49851.716
  
                   Maximum memory used (kb):     4781380.
                   Average memory used (kb):           0.
  
                          Minor page faults:      7607484
                          Major page faults:            9
                 Voluntary context switches:         9206
