unknown system                          
           1
    30.000000    0.000000    0.000000
     0.000000   30.000000    0.000000
     0.000000    0.000000   30.000000
   H    C    N 
   3   2   1
Direct configuration=     1
   0.47114681  0.46611896  0.50628826
   0.47319217  0.50879498  0.46483770
   0.46865154  0.52337395  0.52237346
   0.48366764  0.49972081  0.49875719
   0.53196897  0.50081901  0.50230613
   0.57074607  0.50168340  0.50516997
Direct configuration=     2
   0.47114668  0.46611907  0.50628816
   0.47319228  0.50879508  0.46483763
   0.46865155  0.52337406  0.52237339
   0.48366752  0.49972088  0.49875714
   0.53197003  0.50081889  0.50230630
   0.57074514  0.50168315  0.50517010
Direct configuration=     3
   0.47114642  0.46611929  0.50628796
   0.47319252  0.50879528  0.46483747
   0.46865156  0.52337427  0.52237324
   0.48366737  0.49972103  0.49875704
   0.53197146  0.50081862  0.50230659
   0.57074388  0.50168263  0.50517042
Direct configuration=     4
   0.47114639  0.46611931  0.50628793
   0.47319255  0.50879530  0.46483745
   0.46865157  0.52337430  0.52237322
   0.48366739  0.49972105  0.49875703
   0.53197134  0.50081859  0.50230660
   0.57074398  0.50168258  0.50517048
Direct configuration=     5
   0.47114633  0.46611936  0.50628789
   0.47319261  0.50879535  0.46483741
   0.46865157  0.52337435  0.52237319
   0.48366742  0.49972108  0.49875701
   0.53197110  0.50081851  0.50230663
   0.57074417  0.50168247  0.50517060
Direct configuration=     6
   0.47114624  0.46611944  0.50628781
   0.47319270  0.50879542  0.46483735
   0.46865158  0.52337442  0.52237313
   0.48366747  0.49972114  0.49875698
   0.53197081  0.50081840  0.50230668
   0.57074441  0.50168230  0.50517077
Direct configuration=     7
   0.47114612  0.46611955  0.50628771
   0.47319283  0.50879552  0.46483727
   0.46865159  0.52337453  0.52237306
   0.48366752  0.49972121  0.49875694
   0.53197051  0.50081825  0.50230675
   0.57074465  0.50168206  0.50517100
Direct configuration=     8
   0.47114596  0.46611969  0.50628758
   0.47319298  0.50879565  0.46483717
   0.46865161  0.52337467  0.52237296
   0.48366756  0.49972130  0.49875688
   0.53197027  0.50081806  0.50230685
   0.57074483  0.50168175  0.50517127
Direct configuration=     9
   0.47114577  0.46611985  0.50628743
   0.47319317  0.50879580  0.46483705
   0.46865163  0.52337483  0.52237285
   0.48366759  0.49972141  0.49875681
   0.53197014  0.50081784  0.50230698
   0.57074492  0.50168139  0.50517159
Direct configuration=    10
   0.47114552  0.46612006  0.50628724
   0.47319340  0.50879599  0.46483691
   0.46865166  0.52337504  0.52237271
   0.48366761  0.49972154  0.49875673
   0.53197014  0.50081757  0.50230716
   0.57074489  0.50168092  0.50517198
Direct configuration=    11
   0.47114521  0.46612033  0.50628701
   0.47319369  0.50879623  0.46483672
   0.46865170  0.52337530  0.52237254
   0.48366761  0.49972171  0.49875662
   0.53197031  0.50081723  0.50230739
   0.57074472  0.50168032  0.50517245
Direct configuration=    12
   0.47114481  0.46612067  0.50628672
   0.47319406  0.50879653  0.46483649
   0.46865176  0.52337564  0.52237231
   0.48366759  0.49972192  0.49875648
   0.53197060  0.50081680  0.50230768
   0.57074443  0.50167955  0.50517304
Direct configuration=    13
   0.47114429  0.46612111  0.50628636
   0.47319452  0.50879692  0.46483621
   0.46865183  0.52337608  0.52237203
   0.48366756  0.49972218  0.49875630
   0.53197089  0.50081626  0.50230805
   0.57074413  0.50167855  0.50517379
Direct configuration=    14
   0.47114364  0.46612166  0.50628592
   0.47319511  0.50879741  0.46483585
   0.46865195  0.52337664  0.52237167
   0.48366757  0.49972251  0.49875609
   0.53197099  0.50081558  0.50230848
   0.57074399  0.50167730  0.50517473
Direct configuration=    15
   0.47114281  0.46612235  0.50628539
   0.47319583  0.50879802  0.46483542
   0.46865210  0.52337734  0.52237123
   0.48366760  0.49972291  0.49875583
   0.53197079  0.50081474  0.50230897
   0.57074411  0.50167573  0.50517590
Direct configuration=    16
   0.47114175  0.46612321  0.50628475
   0.47319673  0.50879879  0.46483489
   0.46865232  0.52337824  0.52237068
   0.48366766  0.49972342  0.49875552
   0.53197038  0.50081370  0.50230956
   0.57074439  0.50167375  0.50517733
Direct configuration=    17
   0.47114039  0.46612431  0.50628400
   0.47319784  0.50879975  0.46483425
   0.46865264  0.52337939  0.52236999
   0.48366769  0.49972404  0.49875513
   0.53197017  0.50081242  0.50231029
   0.57074450  0.50167121  0.50517906
Direct configuration=    18
   0.47113866  0.46612567  0.50628314
   0.47319918  0.50880094  0.46483349
   0.46865307  0.52338085  0.52236914
   0.48366764  0.49972481  0.49875467
   0.53197046  0.50081086  0.50231119
   0.57074417  0.50166799  0.50518109
Direct configuration=    19
   0.47113644  0.46612738  0.50628214
   0.47320083  0.50880244  0.46483256
   0.46865369  0.52338273  0.52236809
   0.48366759  0.49972578  0.49875411
   0.53197084  0.50080895  0.50231227
   0.57074375  0.50166390  0.50518352
Direct configuration=    20
   0.47113363  0.46612951  0.50628101
   0.47320283  0.50880430  0.46483145
   0.46865454  0.52338512  0.52236681
   0.48366763  0.49972697  0.49875346
   0.53197052  0.50080659  0.50231347
   0.57074390  0.50165875  0.50518646
Direct configuration=    21
   0.47113004  0.46613219  0.50627974
   0.47320527  0.50880663  0.46483013
   0.46865571  0.52338817  0.52236522
   0.48366770  0.49972845  0.49875268
   0.53197004  0.50080368  0.50231488
   0.57074415  0.50165222  0.50518996
Direct configuration=    22
   0.47112554  0.46613556  0.50627834
   0.47320819  0.50880951  0.46482856
   0.46865727  0.52339203  0.52236327
   0.48366764  0.49973029  0.49875175
   0.53197063  0.50080012  0.50231660
   0.57074346  0.50164399  0.50519402
Direct configuration=    23
   0.47111993  0.46613979  0.50627678
   0.47321174  0.50881307  0.46482670
   0.46865933  0.52339690  0.52236088
   0.48366768  0.49973257  0.49875064
   0.53197021  0.50079569  0.50231854
   0.57074356  0.50163369  0.50519890
Direct configuration=    24
   0.47111309  0.46614499  0.50627481
   0.47321615  0.50881747  0.46482438
   0.46866185  0.52340280  0.52235788
   0.48366768  0.49973533  0.49874924
   0.53197003  0.50079031  0.50232101
   0.57074334  0.50162106  0.50520500
Direct configuration=    25
   0.47110508  0.46615109  0.50627202
   0.47322177  0.50882284  0.46482141
   0.46866457  0.52340958  0.52235409
   0.48366761  0.49973860  0.49874738
   0.53197040  0.50078397  0.50232434
   0.57074239  0.50160611  0.50521297
Direct configuration=    26
   0.47109622  0.46615778  0.50626799
   0.47322880  0.50882916  0.46481760
   0.46866711  0.52341685  0.52234946
   0.48366802  0.49974229  0.49874498
   0.53196744  0.50077677  0.50232852
   0.57074403  0.50158948  0.50522358
Direct configuration=    27
   0.47108676  0.46616480  0.50626265
   0.47323706  0.50883625  0.46481296
   0.46866915  0.52342433  0.52234409
   0.48366691  0.49974621  0.49874192
   0.53197656  0.50076926  0.50233471
   0.57073515  0.50157152  0.50523580
Direct configuration=    28
   0.47108676  0.46616478  0.50626233
   0.47323738  0.50883639  0.46481277
   0.46866903  0.52342430  0.52234396
   0.48366806  0.49974626  0.49874188
   0.53196771  0.50076902  0.50233429
   0.57074270  0.50157158  0.50523690
Direct configuration=    29
   0.47108674  0.46616479  0.50626226
   0.47323744  0.50883643  0.46481272
   0.46866899  0.52342430  0.52234393
   0.48366801  0.49974627  0.49874185
   0.53196815  0.50076901  0.50233439
   0.57074232  0.50157154  0.50523700
Direct configuration=    30
   0.47108670  0.46616481  0.50626211
   0.47323758  0.50883650  0.46481263
   0.46866892  0.52342430  0.52234385
   0.48366792  0.49974629  0.49874178
   0.53196889  0.50076898  0.50233456
   0.57074166  0.50157144  0.50523721
Direct configuration=    31
   0.47108663  0.46616484  0.50626186
   0.47323779  0.50883662  0.46481249
   0.46866881  0.52342430  0.52234373
   0.48366782  0.49974632  0.49874168
   0.53196968  0.50076892  0.50233482
   0.57074096  0.50157129  0.50523758
Direct configuration=    32
   0.47108662  0.46616484  0.50626184
   0.47323781  0.50883663  0.46481248
   0.46866881  0.52342430  0.52234372
   0.48366783  0.49974633  0.49874167
   0.53196964  0.50076891  0.50233483
   0.57074099  0.50157128  0.50523762
Direct configuration=    33
   0.47108661  0.46616484  0.50626181
   0.47323784  0.50883665  0.46481246
   0.46866879  0.52342430  0.52234370
   0.48366784  0.49974633  0.49874166
   0.53196957  0.50076890  0.50233485
   0.57074105  0.50157126  0.50523769
Direct configuration=    34
   0.47108660  0.46616485  0.50626176
   0.47323789  0.50883667  0.46481243
   0.46866877  0.52342431  0.52234367
   0.48366785  0.49974634  0.49874164
   0.53196947  0.50076888  0.50233489
   0.57074113  0.50157123  0.50523779
Direct configuration=    35
   0.47108657  0.46616486  0.50626168
   0.47323796  0.50883671  0.46481238
   0.46866874  0.52342431  0.52234364
   0.48366787  0.49974636  0.49874161
   0.53196934  0.50076885  0.50233493
   0.57074123  0.50157118  0.50523792
Direct configuration=    36
   0.47108654  0.46616488  0.50626159
   0.47323804  0.50883676  0.46481233
   0.46866871  0.52342432  0.52234359
   0.48366789  0.49974637  0.49874158
   0.53196921  0.50076881  0.50233500
   0.57074134  0.50157112  0.50523809
Direct configuration=    37
   0.47108650  0.46616490  0.50626149
   0.47323815  0.50883682  0.46481226
   0.46866867  0.52342434  0.52234353
   0.48366791  0.49974640  0.49874153
   0.53196909  0.50076877  0.50233508
   0.57074143  0.50157103  0.50523829
Direct configuration=    38
   0.47108644  0.46616493  0.50626135
   0.47323828  0.50883690  0.46481218
   0.46866862  0.52342436  0.52234346
   0.48366793  0.49974643  0.49874148
   0.53196897  0.50076870  0.50233518
   0.57074152  0.50157092  0.50523854
Direct configuration=    39
   0.47108636  0.46616498  0.50626118
   0.47323845  0.50883700  0.46481207
   0.46866856  0.52342440  0.52234336
   0.48366794  0.49974647  0.49874141
   0.53196890  0.50076862  0.50233531
   0.57074157  0.50157076  0.50523885
Direct configuration=    40
   0.47108625  0.46616505  0.50626098
   0.47323865  0.50883713  0.46481194
   0.46866850  0.52342446  0.52234325
   0.48366795  0.49974652  0.49874133
   0.53196887  0.50076851  0.50233548
   0.57074157  0.50157054  0.50523923
Direct configuration=    41
   0.47108610  0.46616515  0.50626074
   0.47323890  0.50883730  0.46481178
   0.46866844  0.52342455  0.52234310
   0.48366795  0.49974660  0.49874122
   0.53196892  0.50076836  0.50233569
   0.57074151  0.50157023  0.50523968
Direct configuration=    42
   0.47108589  0.46616529  0.50626046
   0.47323921  0.50883751  0.46481158
   0.46866838  0.52342470  0.52234292
   0.48366793  0.49974671  0.49874110
   0.53196904  0.50076816  0.50233594
   0.57074139  0.50156981  0.50524021
Direct configuration=    43
   0.47108559  0.46616551  0.50626015
   0.47323958  0.50883778  0.46481135
   0.46866835  0.52342493  0.52234270
   0.48366791  0.49974685  0.49874096
   0.53196920  0.50076788  0.50233623
   0.57074124  0.50156921  0.50524083
Direct configuration=    44
   0.47108516  0.46616582  0.50625982
   0.47324001  0.50883814  0.46481107
   0.46866836  0.52342527  0.52234244
   0.48366790  0.49974705  0.49874079
   0.53196934  0.50076749  0.50233655
   0.57074111  0.50156838  0.50524154
Direct configuration=    45
   0.47108457  0.46616627  0.50625949
   0.47324051  0.50883859  0.46481076
   0.46866846  0.52342580  0.52234213
   0.48366788  0.49974733  0.49874061
   0.53196938  0.50076695  0.50233690
   0.57074106  0.50156722  0.50524233
Direct configuration=    46
   0.47108376  0.46616689  0.50625915
   0.47324110  0.50883916  0.46481040
   0.46866865  0.52342653  0.52234176
   0.48366788  0.49974771  0.49874041
   0.53196930  0.50076623  0.50233727
   0.57074114  0.50156567  0.50524323
Direct configuration=    47
   0.47108270  0.46616772  0.50625881
   0.47324179  0.50883989  0.46480998
   0.46866898  0.52342752  0.52234130
   0.48366789  0.49974819  0.49874019
   0.53196911  0.50076528  0.50233767
   0.57074131  0.50156362  0.50524424
Direct configuration=    48
   0.47108132  0.46616882  0.50625846
   0.47324263  0.50884079  0.46480949
   0.46866945  0.52342883  0.52234074
   0.48366789  0.49974882  0.49873993
   0.53196899  0.50076406  0.50233813
   0.57074142  0.50156097  0.50524541
Direct configuration=    49
   0.47107956  0.46617023  0.50625809
   0.47324363  0.50884191  0.46480892
   0.46867010  0.52343049  0.52234005
   0.48366785  0.49974961  0.49873962
   0.53196910  0.50076254  0.50233869
   0.57074133  0.50155759  0.50524675
Direct configuration=    50
   0.47107735  0.46617202  0.50625767
   0.47324487  0.50884331  0.46480824
   0.46867097  0.52343259  0.52233918
   0.48366779  0.49975060  0.49873925
   0.53196934  0.50076065  0.50233936
   0.57074110  0.50155334  0.50524834
Direct configuration=    51
   0.47107460  0.46617425  0.50625717
   0.47324640  0.50884502  0.46480744
   0.46867208  0.52343517  0.52233810
   0.48366778  0.49975182  0.49873881
   0.53196930  0.50075832  0.50234016
   0.57074107  0.50154808  0.50525030
Direct configuration=    52
   0.47107123  0.46617699  0.50625652
   0.47324832  0.50884713  0.46480647
   0.46867344  0.52343828  0.52233673
   0.48366781  0.49975330  0.49873825
   0.53196894  0.50075550  0.50234117
   0.57074123  0.50154165  0.50525276
Direct configuration=    53
   0.47106718  0.46618028  0.50625561
   0.47325076  0.50884971  0.46480527
   0.46867503  0.52344196  0.52233501
   0.48366780  0.49975506  0.49873752
   0.53196903  0.50075215  0.50234252
   0.57074090  0.50153389  0.50525586
Direct configuration=    54
   0.47106235  0.46618417  0.50625431
   0.47325388  0.50885285  0.46480373
   0.46867682  0.52344625  0.52233285
   0.48366782  0.49975715  0.49873658
   0.53196901  0.50074818  0.50234432
   0.57074056  0.50152467  0.50525990
Direct configuration=    55
   0.47105670  0.46618863  0.50625243
   0.47325785  0.50885666  0.46480171
   0.46867871  0.52345115  0.52233019
   0.48366791  0.49975956  0.49873536
   0.53196830  0.50074354  0.50234668
   0.57074068  0.50151393  0.50526521
Direct configuration=    56
   0.47105020  0.46619362  0.50624984
   0.47326281  0.50886118  0.46479913
   0.46868058  0.52345662  0.52232699
   0.48366777  0.49976229  0.49873379
   0.53196934  0.50073827  0.50234989
   0.57073922  0.50150169  0.50527186
Direct configuration=    57
   0.47104295  0.46619904  0.50624649
   0.47326878  0.50886636  0.46479596
   0.46868237  0.52346258  0.52232330
   0.48366818  0.49976532  0.49873195
   0.53196605  0.50073229  0.50235350
   0.57074141  0.50148821  0.50528024
Direct configuration=    58
   0.47103479  0.46620496  0.50624248
   0.47327569  0.50887222  0.46479233
   0.46868408  0.52346911  0.52231915
   0.48366718  0.49976860  0.49872939
   0.53197312  0.50072580  0.50235864
   0.57073474  0.50147321  0.50528940
Direct configuration=    59
   0.47103464  0.46620507  0.50624234
   0.47327590  0.50887238  0.46479219
   0.46868410  0.52346921  0.52231905
   0.48366786  0.49976868  0.49872940
   0.53196785  0.50072550  0.50235839
   0.57073926  0.50147306  0.50529002
Direct configuration=    60
   0.47103458  0.46620511  0.50624232
   0.47327594  0.50887242  0.46479217
   0.46868412  0.52346926  0.52231902
   0.48366786  0.49976870  0.49872939
   0.53196788  0.50072544  0.50235842
   0.57073923  0.50147297  0.50529007
Direct configuration=    61
   0.47103443  0.46620523  0.50624230
   0.47327601  0.50887251  0.46479212
   0.46868418  0.52346939  0.52231898
   0.48366785  0.49976877  0.49872937
   0.53196794  0.50072529  0.50235847
   0.57073919  0.50147273  0.50529014
Direct configuration=    62
   0.47103419  0.46620541  0.50624228
   0.47327611  0.50887265  0.46479205
   0.46868428  0.52346960  0.52231891
   0.48366783  0.49976886  0.49872935
   0.53196802  0.50072506  0.50235854
   0.57073915  0.50147235  0.50529025
Direct configuration=    63
   0.47103387  0.46620565  0.50624227
   0.47327625  0.50887283  0.46479196
   0.46868442  0.52346988  0.52231881
   0.48366782  0.49976900  0.49872932
   0.53196808  0.50072474  0.50235862
   0.57073912  0.50147184  0.50529039
Direct configuration=    64
   0.47103346  0.46620597  0.50624225
   0.47327642  0.50887307  0.46479186
   0.46868459  0.52347025  0.52231870
   0.48366780  0.49976917  0.49872928
   0.53196812  0.50072434  0.50235871
   0.57073912  0.50147119  0.50529055
Direct configuration=    65
   0.47103297  0.46620634  0.50624223
   0.47327662  0.50887335  0.46479173
   0.46868481  0.52347069  0.52231856
   0.48366779  0.49976937  0.49872924
   0.53196812  0.50072386  0.50235882
   0.57073916  0.50147040  0.50529076
Direct configuration=    66
   0.47103233  0.46620684  0.50624221
   0.47327688  0.50887371  0.46479158
   0.46868510  0.52347126  0.52231838
   0.48366778  0.49976962  0.49872917
   0.53196809  0.50072324  0.50235895
   0.57073924  0.50146937  0.50529102
Direct configuration=    67
   0.47103150  0.46620748  0.50624217
   0.47327723  0.50887418  0.46479138
   0.46868546  0.52347200  0.52231815
   0.48366778  0.49976995  0.49872909
   0.53196805  0.50072245  0.50235913
   0.57073933  0.50146804  0.50529136
Direct configuration=    68
   0.47103044  0.46620829  0.50624212
   0.47327768  0.50887478  0.46479114
   0.46868593  0.52347294  0.52231786
   0.48366776  0.49977036  0.49872897
   0.53196805  0.50072145  0.50235936
   0.57073939  0.50146635  0.50529181
Direct configuration=    69
   0.47102912  0.46620931  0.50624204
   0.47327826  0.50887553  0.46479084
   0.46868652  0.52347411  0.52231748
   0.48366774  0.49977087  0.49872882
   0.53196812  0.50072022  0.50235967
   0.57073939  0.50146422  0.50529237
Direct configuration=    70
   0.47102746  0.46621058  0.50624192
   0.47327902  0.50887646  0.46479047
   0.46868724  0.52347555  0.52231699
   0.48366772  0.49977148  0.49872862
   0.53196823  0.50071872  0.50236006
   0.57073935  0.50146157  0.50529312
Direct configuration=    71
   0.47102541  0.46621213  0.50624172
   0.47328000  0.50887762  0.46479001
   0.46868813  0.52347730  0.52231635
   0.48366772  0.49977223  0.49872836
   0.53196826  0.50071689  0.50236057
   0.57073935  0.50145830  0.50529409
Direct configuration=    72
   0.47102289  0.46621402  0.50624142
   0.47328128  0.50887905  0.46478944
   0.46868920  0.52347939  0.52231554
   0.48366773  0.49977314  0.49872804
   0.53196817  0.50071472  0.50236122
   0.57073941  0.50145430  0.50529538
Direct configuration=    73
   0.47101982  0.46621628  0.50624094
   0.47328293  0.50888080  0.46478873
   0.46869046  0.52348187  0.52231450
   0.48366775  0.49977422  0.49872765
   0.53196812  0.50071215  0.50236208
   0.57073939  0.50144946  0.50529707
Direct configuration=    74
   0.47101982  0.46621628  0.50624094
   0.47328293  0.50888080  0.46478873
   0.46869046  0.52348187  0.52231450
   0.48366775  0.49977422  0.49872765
   0.53196812  0.50071215  0.50236208
   0.57073939  0.50144946  0.50529707
