   6   6   0   0
  0.4500000E+04  0.3000000E-08  0.3000000E-08  0.3000000E-08  0.0000000E+00
  1.000000000000000E-004
  CAR 
 unknown system                          
      2.02035480    -24.52364800  301     -7.09274053      1.00000000
    -24.524  0.0000E+00  0.0000E+00
    -24.435  0.0000E+00  0.0000E+00
    -24.347  0.0000E+00  0.0000E+00
    -24.258  0.0000E+00  0.0000E+00
    -24.170  0.0000E+00  0.0000E+00
    -24.081  0.0000E+00  0.0000E+00
    -23.993  0.0000E+00  0.0000E+00
    -23.904  0.0000E+00  0.0000E+00
    -23.816  0.0000E+00  0.0000E+00
    -23.727  0.0000E+00  0.0000E+00
    -23.639  0.1171E-15  0.1036E-16
    -23.550  0.1446E-13  0.1290E-14
    -23.462  0.1213E-11  0.1086E-12
    -23.373  0.6922E-10  0.6233E-11
    -23.285  0.2688E-08  0.2441E-09
    -23.196  0.7111E-07  0.6536E-08
    -23.108  0.1282E-05  0.1200E-06
    -23.019  0.1577E-04  0.1516E-05
    -22.931  0.1325E-03  0.1324E-04
    -22.843  0.7600E-03  0.8048E-04
    -22.754  0.2981E-02  0.3443E-03
    -22.666  0.7999E-02  0.1052E-02
    -22.577  0.1469E-01  0.2352E-02
    -22.489  0.1847E-01  0.3986E-02
    -22.400  0.1589E-01  0.5392E-02
    -22.312  0.9365E-02  0.6220E-02
    -22.223  0.3777E-02  0.6555E-02
    -22.135  0.1042E-02  0.6647E-02
    -22.046  0.1966E-03  0.6664E-02
    -21.958  0.2534E-04  0.6666E-02
    -21.869  0.2230E-05  0.6667E-02
    -21.781  0.1339E-06  0.6667E-02
    -21.692  0.5483E-08  0.6667E-02
    -21.604  0.1529E-09  0.6667E-02
    -21.515  0.2904E-11  0.6667E-02
    -21.427  0.3751E-13  0.6667E-02
    -21.338  0.3346E-15  0.6667E-02
    -21.250  0.0000E+00  0.6667E-02
    -21.161  0.0000E+00  0.6667E-02
    -21.073  0.0000E+00  0.6667E-02
    -20.984  0.0000E+00  0.6667E-02
    -20.896  0.0000E+00  0.6667E-02
    -20.807  0.0000E+00  0.6667E-02
    -20.719  0.0000E+00  0.6667E-02
    -20.631  0.0000E+00  0.6667E-02
    -20.542  0.8365E-17  0.6667E-02
    -20.454  0.1041E-14  0.6667E-02
    -20.365  0.1084E-12  0.6667E-02
    -20.277  0.7661E-11  0.6667E-02
    -20.188  0.3685E-09  0.6667E-02
    -20.100  0.1207E-07  0.6667E-02
    -20.011  0.2692E-06  0.6667E-02
    -19.923  0.4096E-05  0.6667E-02
    -19.834  0.4253E-04  0.6671E-02
    -19.746  0.3015E-03  0.6697E-02
    -19.657  0.1461E-02  0.6827E-02
    -19.569  0.4842E-02  0.7255E-02
    -19.480  0.1098E-01  0.8227E-02
    -19.392  0.1704E-01  0.9734E-02
    -19.303  0.1810E-01  0.1134E-01
    -19.215  0.1317E-01  0.1250E-01
    -19.126  0.6558E-02  0.1308E-01
    -19.038  0.2235E-02  0.1328E-01
    -18.949  0.5208E-03  0.1333E-01
    -18.861  0.8297E-04  0.1333E-01
    -18.772  0.9030E-05  0.1333E-01
    -18.684  0.6708E-06  0.1333E-01
    -18.595  0.3398E-07  0.1333E-01
    -18.507  0.1173E-08  0.1333E-01
    -18.419  0.2760E-10  0.1333E-01
    -18.330  0.4416E-12  0.1333E-01
    -18.242  0.4810E-14  0.1333E-01
    -18.153  0.3346E-16  0.1333E-01
    -18.065  0.0000E+00  0.1333E-01
    -17.976  0.0000E+00  0.1333E-01
    -17.888  0.0000E+00  0.1333E-01
    -17.799  0.0000E+00  0.1333E-01
    -17.711  0.0000E+00  0.1333E-01
    -17.622  0.0000E+00  0.1333E-01
    -17.534  0.0000E+00  0.1333E-01
    -17.445  0.0000E+00  0.1333E-01
    -17.357  0.0000E+00  0.1333E-01
    -17.268  0.0000E+00  0.1333E-01
    -17.180  0.0000E+00  0.1333E-01
    -17.091  0.0000E+00  0.1333E-01
    -17.003  0.0000E+00  0.1333E-01
    -16.914  0.0000E+00  0.1333E-01
    -16.826  0.0000E+00  0.1333E-01
    -16.737  0.0000E+00  0.1333E-01
    -16.649  0.0000E+00  0.1333E-01
    -16.560  0.0000E+00  0.1333E-01
    -16.472  0.0000E+00  0.1333E-01
    -16.383  0.0000E+00  0.1333E-01
    -16.295  0.0000E+00  0.1333E-01
    -16.207  0.0000E+00  0.1333E-01
    -16.118  0.0000E+00  0.1333E-01
    -16.030  0.0000E+00  0.1333E-01
    -15.941  0.0000E+00  0.1333E-01
    -15.853  0.0000E+00  0.1333E-01
    -15.764  0.0000E+00  0.1333E-01
    -15.676  0.0000E+00  0.1333E-01
    -15.587  0.0000E+00  0.1333E-01
    -15.499  0.0000E+00  0.1333E-01
    -15.410  0.0000E+00  0.1333E-01
    -15.322  0.0000E+00  0.1333E-01
    -15.233  0.0000E+00  0.1333E-01
    -15.145  0.0000E+00  0.1333E-01
    -15.056  0.0000E+00  0.1333E-01
    -14.968  0.0000E+00  0.1333E-01
    -14.879  0.0000E+00  0.1333E-01
    -14.791  0.0000E+00  0.1333E-01
    -14.702  0.0000E+00  0.1333E-01
    -14.614  0.0000E+00  0.1333E-01
    -14.525  0.0000E+00  0.1333E-01
    -14.437  0.0000E+00  0.1333E-01
    -14.348  0.0000E+00  0.1333E-01
    -14.260  0.0000E+00  0.1333E-01
    -14.171  0.0000E+00  0.1333E-01
    -14.083  0.0000E+00  0.1333E-01
    -13.995  0.8365E-17  0.1333E-01
    -13.906  0.1092E-14  0.1333E-01
    -13.818  0.1131E-12  0.1333E-01
    -13.729  0.7966E-11  0.1333E-01
    -13.641  0.3817E-09  0.1333E-01
    -13.552  0.1245E-07  0.1333E-01
    -13.464  0.2768E-06  0.1333E-01
    -13.375  0.4197E-05  0.1333E-01
    -13.287  0.4341E-04  0.1334E-01
    -13.198  0.3067E-03  0.1336E-01
    -13.110  0.1481E-02  0.1350E-01
    -13.021  0.4889E-02  0.1393E-01
    -12.933  0.1105E-01  0.1491E-01
    -12.844  0.1708E-01  0.1642E-01
    -12.756  0.1808E-01  0.1802E-01
    -12.667  0.1310E-01  0.1918E-01
    -12.579  0.6502E-02  0.1975E-01
    -12.490  0.2207E-02  0.1995E-01
    -12.402  0.5126E-03  0.1999E-01
    -12.313  0.8137E-04  0.2000E-01
    -12.225  0.8830E-05  0.2000E-01
    -12.136  0.8275E-06  0.2000E-01
    -12.048  0.3100E-05  0.2000E-01
    -11.959  0.3678E-04  0.2000E-01
    -11.871  0.3011E-03  0.2003E-01
    -11.783  0.1684E-02  0.2018E-01
    -11.694  0.6442E-02  0.2075E-01
    -11.606  0.1686E-01  0.2224E-01
    -11.517  0.3018E-01  0.2491E-01
    -11.429  0.3700E-01  0.2818E-01
    -11.340  0.3105E-01  0.3093E-01
    -11.252  0.1784E-01  0.3251E-01
    -11.163  0.7015E-02  0.3313E-01
    -11.075  0.1887E-02  0.3330E-01
    -10.986  0.3471E-03  0.3333E-01
    -10.898  0.4362E-04  0.3333E-01
    -10.809  0.3743E-05  0.3333E-01
    -10.721  0.2191E-06  0.3333E-01
    -10.632  0.8746E-08  0.3333E-01
    -10.544  0.2378E-09  0.3333E-01
    -10.455  0.4401E-11  0.3333E-01
    -10.367  0.5541E-13  0.3333E-01
    -10.278  0.4684E-15  0.3333E-01
    -10.190  0.0000E+00  0.3333E-01
    -10.101  0.0000E+00  0.3333E-01
    -10.013  0.0000E+00  0.3333E-01
     -9.924  0.0000E+00  0.3333E-01
     -9.836  0.0000E+00  0.3333E-01
     -9.747  0.0000E+00  0.3333E-01
     -9.659  0.8365E-17  0.3333E-01
     -9.571  0.1016E-14  0.3333E-01
     -9.482  0.1061E-12  0.3333E-01
     -9.394  0.7515E-11  0.3333E-01
     -9.305  0.3621E-09  0.3333E-01
     -9.217  0.1188E-07  0.3333E-01
     -9.128  0.2655E-06  0.3333E-01
     -9.040  0.4047E-05  0.3333E-01
     -8.951  0.4209E-04  0.3334E-01
     -8.863  0.2990E-03  0.3336E-01
     -8.774  0.1452E-02  0.3349E-01
     -8.686  0.4820E-02  0.3392E-01
     -8.597  0.1096E-01  0.3489E-01
     -8.509  0.1713E-01  0.3640E-01
     -8.420  0.1887E-01  0.3807E-01
     -8.332  0.1669E-01  0.3955E-01
     -8.243  0.1760E-01  0.4111E-01
     -8.155  0.2601E-01  0.4341E-01
     -8.066  0.3562E-01  0.4656E-01
     -7.978  0.3557E-01  0.4971E-01
     -7.889  0.2458E-01  0.5188E-01
     -7.801  0.1164E-01  0.5291E-01
     -7.712  0.3775E-02  0.5325E-01
     -7.624  0.8371E-03  0.5332E-01
     -7.535  0.1269E-03  0.5333E-01
     -7.447  0.1314E-04  0.5333E-01
     -7.359  0.9283E-06  0.5333E-01
     -7.270  0.4473E-07  0.5333E-01
     -7.182  0.1469E-08  0.5333E-01
     -7.093  0.3285E-10  0.5333E-01
     -7.005  0.5000E-12  0.5333E-01
     -6.916  0.5178E-14  0.5333E-01
     -6.828  0.3346E-16  0.5333E-01
     -6.739  0.0000E+00  0.5333E-01
     -6.651  0.0000E+00  0.5333E-01
     -6.562  0.0000E+00  0.5333E-01
     -6.474  0.0000E+00  0.5333E-01
     -6.385  0.0000E+00  0.5333E-01
     -6.297  0.0000E+00  0.5333E-01
     -6.208  0.0000E+00  0.5333E-01
     -6.120  0.0000E+00  0.5333E-01
     -6.031  0.0000E+00  0.5333E-01
     -5.943  0.0000E+00  0.5333E-01
     -5.854  0.0000E+00  0.5333E-01
     -5.766  0.0000E+00  0.5333E-01
     -5.677  0.0000E+00  0.5333E-01
     -5.589  0.0000E+00  0.5333E-01
     -5.500  0.0000E+00  0.5333E-01
     -5.412  0.0000E+00  0.5333E-01
     -5.323  0.0000E+00  0.5333E-01
     -5.235  0.0000E+00  0.5333E-01
     -5.147  0.0000E+00  0.5333E-01
     -5.058  0.0000E+00  0.5333E-01
     -4.970  0.0000E+00  0.5333E-01
     -4.881  0.0000E+00  0.5333E-01
     -4.793  0.0000E+00  0.5333E-01
     -4.704  0.0000E+00  0.5333E-01
     -4.616  0.0000E+00  0.5333E-01
     -4.527  0.0000E+00  0.5333E-01
     -4.439  0.0000E+00  0.5333E-01
     -4.350  0.0000E+00  0.5333E-01
     -4.262  0.0000E+00  0.5333E-01
     -4.173  0.0000E+00  0.5333E-01
     -4.085  0.0000E+00  0.5333E-01
     -3.996  0.0000E+00  0.5333E-01
     -3.908  0.0000E+00  0.5333E-01
     -3.819  0.0000E+00  0.5333E-01
     -3.731  0.0000E+00  0.5333E-01
     -3.642  0.0000E+00  0.5333E-01
     -3.554  0.0000E+00  0.5333E-01
     -3.465  0.0000E+00  0.5333E-01
     -3.377  0.0000E+00  0.5333E-01
     -3.288  0.0000E+00  0.5333E-01
     -3.200  0.0000E+00  0.5333E-01
     -3.111  0.0000E+00  0.5333E-01
     -3.023  0.0000E+00  0.5333E-01
     -2.935  0.0000E+00  0.5333E-01
     -2.846  0.0000E+00  0.5333E-01
     -2.758  0.0000E+00  0.5333E-01
     -2.669  0.0000E+00  0.5333E-01
     -2.581  0.0000E+00  0.5333E-01
     -2.492  0.0000E+00  0.5333E-01
     -2.404  0.0000E+00  0.5333E-01
     -2.315  0.0000E+00  0.5333E-01
     -2.227  0.0000E+00  0.5333E-01
     -2.138  0.0000E+00  0.5333E-01
     -2.050  0.0000E+00  0.5333E-01
     -1.961  0.6692E-16  0.5333E-01
     -1.873  0.8440E-14  0.5333E-01
     -1.784  0.7405E-12  0.5333E-01
     -1.696  0.4418E-10  0.5333E-01
     -1.607  0.1794E-08  0.5333E-01
     -1.519  0.4961E-07  0.5333E-01
     -1.430  0.9352E-06  0.5333E-01
     -1.342  0.1203E-04  0.5333E-01
     -1.253  0.1056E-03  0.5334E-01
     -1.165  0.6330E-03  0.5340E-01
     -1.076  0.2596E-02  0.5363E-01
     -0.988  0.7292E-02  0.5427E-01
     -0.899  0.1412E-01  0.5552E-01
     -0.811  0.1936E-01  0.5724E-01
     -0.723  0.2090E-01  0.5909E-01
     -0.634  0.2315E-01  0.6113E-01
     -0.546  0.3048E-01  0.6383E-01
     -0.457  0.3742E-01  0.6714E-01
     -0.369  0.3460E-01  0.7020E-01
     -0.280  0.2318E-01  0.7225E-01
     -0.192  0.1357E-01  0.7345E-01
     -0.103  0.1233E-01  0.7455E-01
     -0.015  0.1651E-01  0.7601E-01
      0.074  0.1855E-01  0.7765E-01
      0.162  0.1470E-01  0.7895E-01
      0.251  0.7997E-02  0.7966E-01
      0.339  0.2980E-02  0.7992E-01
      0.428  0.7595E-03  0.7999E-01
      0.516  0.1324E-03  0.8000E-01
      0.605  0.1576E-04  0.8000E-01
      0.693  0.1281E-05  0.8000E-01
      0.782  0.7102E-07  0.8000E-01
      0.870  0.2684E-08  0.8000E-01
      0.959  0.6911E-10  0.8000E-01
      1.047  0.1211E-11  0.8000E-01
      1.136  0.1444E-13  0.8000E-01
      1.224  0.1171E-15  0.8000E-01
      1.313  0.0000E+00  0.8000E-01
      1.401  0.0000E+00  0.8000E-01
      1.489  0.0000E+00  0.8000E-01
      1.578  0.0000E+00  0.8000E-01
      1.666  0.0000E+00  0.8000E-01
      1.755  0.0000E+00  0.8000E-01
      1.843  0.0000E+00  0.8000E-01
      1.932  0.0000E+00  0.8000E-01
      2.020  0.0000E+00  0.8000E-01
