    6    6  300    1
  0.4500000E+04  0.3000000E-08  0.3000000E-08  0.3000000E-08  0.0000000E+00
  1.000000000000000E-004
  CAR 
 unknown system                          
     16      4     12
 
  0.2500000E+00  0.2500000E+00  0.2500000E+00  0.2500000E+00
    1      -22.523648   1.000000
    2      -19.377647   1.000000
    3      -12.830978   1.000000
    4      -11.469646   1.000000
    5      -11.469415   1.000000
    6       -8.494187   1.000000
    7       -8.063885   1.000000
    8       -8.063673   1.000000
    9       -0.835789   0.000000
   10       -0.470518   0.000000
   11       -0.470135   0.000000
   12        0.020297   0.000000
 
 -0.2500000E+00  0.2500000E+00  0.2500000E+00  0.2500000E+00
    1      -22.523647   1.000000
    2      -19.377649   1.000000
    3      -12.830977   1.000000
    4      -11.469648   1.000000
    5      -11.469416   1.000000
    6       -8.494185   1.000000
    7       -8.063882   1.000000
    8       -8.063671   1.000000
    9       -0.835789   0.000000
   10       -0.470521   0.000000
   11       -0.470137   0.000000
   12        0.020311   0.000000
 
  0.2500000E+00 -0.2500000E+00  0.2500000E+00  0.2500000E+00
    1      -22.523647   1.000000
    2      -19.377649   1.000000
    3      -12.830977   1.000000
    4      -11.469649   1.000000
    5      -11.469419   1.000000
    6       -8.494187   1.000000
    7       -8.063866   1.000000
    8       -8.063683   1.000000
    9       -0.835789   0.000000
   10       -0.470520   0.000000
   11       -0.470137   0.000000
   12        0.020355   0.000000
 
 -0.2500000E+00 -0.2500000E+00  0.2500000E+00  0.2500000E+00
    1      -22.523647   1.000000
    2      -19.377648   1.000000
    3      -12.830977   1.000000
    4      -11.469651   1.000000
    5      -11.469418   1.000000
    6       -8.494186   1.000000
    7       -8.063869   1.000000
    8       -8.063682   1.000000
    9       -0.835789   0.000000
   10       -0.470517   0.000000
   11       -0.470137   0.000000
   12        0.020309   0.000000
