       N       E                     dE             d eps       ncg     rms          rms(c)
DAV:   1     0.115999062681E+03    0.11600E+03   -0.21169E+03   160   0.366E+02
DAV:   2    -0.160015404048E+00   -0.11616E+03   -0.11345E+03   192   0.108E+02
DAV:   3    -0.372286929007E+02   -0.37069E+02   -0.36966E+02   128   0.941E+01
DAV:   4    -0.407422534248E+02   -0.35136E+01   -0.34972E+01   128   0.273E+01
DAV:   5    -0.408247707096E+02   -0.82517E-01   -0.80370E-01   136   0.451E+00    0.109E+01
DAV:   6    -0.375434040081E+02    0.32814E+01   -0.67162E+00   116   0.177E+01    0.594E+00
DAV:   7    -0.368862974984E+02    0.65711E+00   -0.14102E+00   116   0.839E+00    0.301E+00
DAV:   8    -0.367107625962E+02    0.17553E+00   -0.42319E-01   128   0.484E+00    0.109E+00
DAV:   9    -0.366853331559E+02    0.25429E-01   -0.34048E-02   128   0.153E+00    0.333E-01
DAV:  10    -0.366809102938E+02    0.44229E-02   -0.48169E-03   128   0.600E-01    0.146E-01
DAV:  11    -0.366821369947E+02   -0.12267E-02   -0.18391E-03   128   0.329E-01    0.953E-02
DAV:  12    -0.366889588960E+02   -0.68219E-02   -0.49303E-03   112   0.526E-01    0.494E-02
DAV:  13    -0.366933151963E+02   -0.43563E-02   -0.12140E-03   160   0.237E-01    0.354E-02
DAV:  14    -0.366975790573E+02   -0.42639E-02   -0.55851E-04   128   0.146E-01    0.240E-02
DAV:  15    -0.367005880499E+02   -0.30090E-02   -0.28943E-04   128   0.894E-02    0.147E-02
DAV:  16    -0.367028289757E+02   -0.22409E-02   -0.25908E-04   128   0.929E-02    0.105E-02
DAV:  17    -0.367037521976E+02   -0.92322E-03   -0.44884E-05    96   0.494E-02    0.397E-03
DAV:  18    -0.367042135534E+02   -0.46136E-03   -0.26805E-05    88   0.304E-02    0.293E-03
DAV:  19    -0.367044748965E+02   -0.26134E-03   -0.12535E-05    80   0.200E-02    0.159E-03
DAV:  20    -0.367045839231E+02   -0.10903E-03   -0.33908E-06    80   0.129E-02    0.159E-03
DAV:  21    -0.367046276862E+02   -0.43763E-04   -0.12813E-06    80   0.766E-03
   1 F= -.36704628E+02 E0= -.36704628E+02  d E =-.367046E+02
       N       E                     dE             d eps       ncg     rms          rms(c)
DAV:   1    -0.367046566261E+02   -0.72703E-04   -0.20657E-04   112   0.130E-01    0.478E-03
DAV:   2    -0.367046621628E+02   -0.55367E-05   -0.28721E-06    88   0.141E-02    0.277E-03
DAV:   3    -0.367046685846E+02   -0.64218E-05   -0.69394E-07    84   0.736E-03    0.123E-03
DAV:   4    -0.367046733972E+02   -0.48126E-05   -0.21880E-07    64   0.383E-03    0.626E-04
DAV:   5    -0.367046773247E+02   -0.39276E-05   -0.43699E-08    64   0.174E-03    0.192E-04
DAV:   6    -0.367046801114E+02   -0.27866E-05   -0.16282E-08    88   0.752E-04
   2 F= -.36704680E+02 E0= -.36704680E+02  d E =-.524252E-04
       N       E                     dE             d eps       ncg     rms          rms(c)
DAV:   1    -0.367046889914E+02   -0.11667E-04   -0.39737E-04    96   0.190E-01    0.660E-03
DAV:   2    -0.367046893152E+02   -0.32383E-06   -0.48590E-06    68   0.222E-02    0.367E-03
DAV:   3    -0.367046901745E+02   -0.85928E-06   -0.15286E-06    80   0.983E-03    0.140E-03
DAV:   4    -0.367046908142E+02   -0.63972E-06   -0.29434E-07    60   0.497E-03    0.719E-04
DAV:   5    -0.367046914923E+02   -0.67812E-06   -0.60062E-08    80   0.220E-03    0.203E-04
DAV:   6    -0.367046917675E+02   -0.27518E-06   -0.25946E-08    48   0.106E-03
   3 F= -.36704692E+02 E0= -.36704692E+02  d E =-.116562E-04
       N       E                     dE             d eps       ncg     rms          rms(c)
DAV:   1    -0.367046945499E+02   -0.30576E-05   -0.65942E-04   112   0.243E-01    0.766E-03
DAV:   2    -0.367046944871E+02    0.62789E-07   -0.72230E-06    56   0.257E-02    0.432E-03
DAV:   3    -0.367046947545E+02   -0.26738E-06   -0.19253E-06    80   0.112E-02    0.150E-03
DAV:   4    -0.367046949295E+02   -0.17500E-06   -0.36949E-07    48   0.550E-03    0.753E-04
DAV:   5    -0.367046950435E+02   -0.11398E-06   -0.74810E-08    72   0.240E-03    0.262E-04
DAV:   6    -0.367046951274E+02   -0.83934E-07   -0.34192E-08    48   0.124E-03
   4 F= -.36704695E+02 E0= -.36704695E+02  d E =-.335988E-05
       N       E                     dE             d eps       ncg     rms          rms(c)
DAV:   1    -0.367046949059E+02    0.13753E-06   -0.90914E-04    96   0.280E-01    0.787E-03
DAV:   2    -0.367046950713E+02   -0.16532E-06   -0.94422E-06    80   0.261E-02    0.476E-03
DAV:   3    -0.367046952018E+02   -0.13058E-06   -0.17668E-06    64   0.117E-02    0.145E-03
DAV:   4    -0.367046952847E+02   -0.82858E-07   -0.42709E-07    48   0.548E-03    0.706E-04
DAV:   5    -0.367046953000E+02   -0.15266E-07   -0.94764E-08    48   0.238E-03    0.351E-04
DAV:   6    -0.367046953362E+02   -0.36255E-07   -0.47636E-08    48   0.135E-03
   5 F= -.36704695E+02 E0= -.36704695E+02  d E =-.208812E-06
       N       E                     dE             d eps       ncg     rms          rms(c)
DAV:   1    -0.367046974992E+02   -0.21992E-05   -0.94805E-04    96   0.288E-01    0.752E-03
DAV:   2    -0.367046976570E+02   -0.15781E-06   -0.10971E-05    48   0.287E-02    0.481E-03
DAV:   3    -0.367046976856E+02   -0.28549E-07   -0.16912E-06    64   0.118E-02    0.194E-03
DAV:   4    -0.367046977828E+02   -0.97254E-07   -0.53978E-07    80   0.637E-03    0.667E-04
DAV:   5    -0.367046978114E+02   -0.28581E-07   -0.12500E-07    48   0.288E-03    0.243E-04
DAV:   6    -0.367046978428E+02   -0.31436E-07   -0.50328E-08    48   0.140E-03
   6 F= -.36704698E+02 E0= -.36704698E+02  d E =-.250661E-05
       N       E                     dE             d eps       ncg     rms          rms(c)
DAV:   1    -0.367047040154E+02   -0.62040E-05   -0.10349E-03    96   0.296E-01    0.724E-03
DAV:   2    -0.367047043053E+02   -0.28985E-06   -0.11616E-05    60   0.287E-02    0.469E-03
DAV:   3    -0.367047043247E+02   -0.19436E-07   -0.18235E-06    48   0.120E-02    0.174E-03
DAV:   4    -0.367047044175E+02   -0.92810E-07   -0.53125E-07    48   0.625E-03    0.726E-04
DAV:   5    -0.367047044390E+02   -0.21453E-07   -0.12084E-07    48   0.285E-03    0.208E-04
DAV:   6    -0.367047044696E+02   -0.30686E-07   -0.50087E-08    48   0.136E-03
   7 F= -.36704704E+02 E0= -.36704704E+02  d E =-.662681E-05
       N       E                     dE             d eps       ncg     rms          rms(c)
DAV:   1    -0.367047115681E+02   -0.71291E-05   -0.14513E-03    96   0.344E-01    0.838E-03
DAV:   2    -0.367047117664E+02   -0.19831E-06   -0.16326E-05    64   0.324E-02    0.534E-03
DAV:   3    -0.367047116880E+02    0.78428E-07   -0.28764E-06    64   0.143E-02    0.161E-03
DAV:   4    -0.367047117817E+02   -0.93758E-07   -0.60498E-07    48   0.657E-03    0.830E-04
DAV:   5    -0.367047118225E+02   -0.40732E-07   -0.12648E-07    48   0.270E-03    0.335E-04
DAV:   6    -0.367047118716E+02   -0.49128E-07   -0.56735E-08    48   0.144E-03
   8 F= -.36704712E+02 E0= -.36704712E+02  d E =-.740195E-05
       N       E                     dE             d eps       ncg     rms          rms(c)
DAV:   1    -0.367047123133E+02   -0.49084E-06   -0.42090E-06    48   0.193E-02    0.616E-04
DAV:   2    -0.367047123637E+02   -0.50377E-07   -0.22359E-07    48   0.457E-03    0.384E-04
DAV:   3    -0.367047124037E+02   -0.40068E-07   -0.39440E-08    48   0.143E-03    0.233E-04
DAV:   4    -0.367047124699E+02   -0.66121E-07   -0.24658E-08    48   0.918E-04    0.723E-05
DAV:   5    -0.367047124983E+02   -0.28387E-07   -0.16567E-08    48   0.433E-04    0.554E-05
DAV:   6    -0.367047125465E+02   -0.48247E-07   -0.14951E-08    48   0.250E-04
   9 F= -.36704713E+02 E0= -.36704713E+02  d E =-.674912E-06
       N       E                     dE             d eps       ncg     rms          rms(c)
DAV:   1    -0.367047131251E+02   -0.62685E-06   -0.12083E-05    48   0.326E-02    0.845E-04
DAV:   2    -0.367047131941E+02   -0.69022E-07   -0.59522E-07    48   0.770E-03    0.556E-04
DAV:   3    -0.367047132215E+02   -0.27334E-07   -0.78723E-08    48   0.231E-03    0.337E-04
DAV:   4    -0.367047132545E+02   -0.33084E-07   -0.34398E-08    48   0.131E-03    0.905E-05
DAV:   5    -0.367047132652E+02   -0.10688E-07   -0.18654E-08    48   0.601E-04    0.752E-05
DAV:   6    -0.367047132822E+02   -0.16956E-07   -0.14672E-08    48   0.330E-04
  10 F= -.36704713E+02 E0= -.36704713E+02  d E =-.735684E-06
       N       E                     dE             d eps       ncg     rms          rms(c)
DAV:   1    -0.367047140561E+02   -0.79086E-06   -0.21596E-05    48   0.427E-02    0.928E-04
DAV:   2    -0.367047141493E+02   -0.93226E-07   -0.10273E-06    48   0.101E-02    0.601E-04
DAV:   3    -0.367047141679E+02   -0.18532E-07   -0.12628E-07    48   0.296E-03    0.322E-04
DAV:   4    -0.367047141763E+02   -0.84849E-08   -0.40135E-08    48   0.140E-03    0.749E-05
DAV:   5    -0.367047141796E+02   -0.32842E-08   -0.20910E-08    48   0.657E-04    0.676E-05
DAV:   6    -0.367047141825E+02   -0.28820E-08   -0.15128E-08    48   0.368E-04
  11 F= -.36704714E+02 E0= -.36704714E+02  d E =-.900318E-06
       N       E                     dE             d eps       ncg     rms          rms(c)
DAV:   1    -0.367047152114E+02   -0.10317E-05   -0.38784E-05    48   0.569E-02    0.126E-03
DAV:   2    -0.367047153616E+02   -0.15022E-06   -0.18313E-06    48   0.134E-02    0.816E-04
DAV:   3    -0.367047153793E+02   -0.17692E-07   -0.21482E-07    48   0.391E-03    0.456E-04
DAV:   4    -0.367047153810E+02   -0.17330E-08   -0.62642E-08    48   0.190E-03    0.117E-04
DAV:   5    -0.367047153843E+02   -0.33106E-08   -0.27938E-08    48   0.895E-04    0.103E-04
DAV:   6    -0.367047153848E+02   -0.49818E-09   -0.17230E-08    48   0.486E-04
  12 F= -.36704715E+02 E0= -.36704715E+02  d E =-.120232E-05
       N       E                     dE             d eps       ncg     rms          rms(c)
DAV:   1    -0.367047164454E+02   -0.10611E-05   -0.59312E-05    48   0.701E-02    0.154E-03
DAV:   2    -0.367047166765E+02   -0.23112E-06   -0.27881E-06    48   0.164E-02    0.100E-03
DAV:   3    -0.367047167039E+02   -0.27313E-07   -0.32220E-07    48   0.481E-03    0.563E-04
DAV:   4    -0.367047167059E+02   -0.19979E-08   -0.89623E-08    48   0.236E-03    0.143E-04
DAV:   5    -0.367047167097E+02   -0.38024E-08   -0.36561E-08    48   0.111E-03    0.126E-04
DAV:   6    -0.367047167101E+02   -0.46566E-09   -0.20003E-08    48   0.603E-04
  13 F= -.36704717E+02 E0= -.36704717E+02  d E =-.132531E-05
       N       E                     dE             d eps       ncg     rms          rms(c)
DAV:   1    -0.367047179097E+02   -0.12000E-05   -0.78634E-05    48   0.802E-02    0.169E-03
DAV:   2    -0.367047182312E+02   -0.32152E-06   -0.36671E-06    48   0.188E-02    0.110E-03
DAV:   3    -0.367047182789E+02   -0.47720E-07   -0.42180E-07    48   0.548E-03    0.578E-04
DAV:   4    -0.367047182866E+02   -0.76948E-08   -0.11018E-07    48   0.258E-03    0.130E-04
DAV:   5    -0.367047182897E+02   -0.30509E-08   -0.43991E-08    48   0.122E-03    0.120E-04
DAV:   6    -0.367047182898E+02   -0.11937E-09   -0.22818E-08    48   0.683E-04
  14 F= -.36704718E+02 E0= -.36704718E+02  d E =-.157968E-05
       N       E                     dE             d eps       ncg     rms          rms(c)
DAV:   1    -0.367047202296E+02   -0.19399E-05   -0.13569E-04    80   0.103E-01    0.230E-03
DAV:   2    -0.367047202908E+02   -0.61218E-07   -0.15930E-06    48   0.990E-03    0.153E-03
DAV:   3    -0.367047202983E+02   -0.74510E-08   -0.21316E-07    48   0.387E-03    0.560E-04
DAV:   4    -0.367047203075E+02   -0.92398E-08   -0.69474E-08    48   0.193E-03    0.180E-04
DAV:   5    -0.367047203096E+02   -0.21444E-08   -0.26914E-08    48   0.880E-04    0.684E-05
DAV:   6    -0.367047203138E+02   -0.41664E-08   -0.18313E-08    48   0.439E-04
  15 F= -.36704720E+02 E0= -.36704720E+02  d E =-.202399E-05
       N       E                     dE             d eps       ncg     rms          rms(c)
DAV:   1    -0.367047226583E+02   -0.23487E-05   -0.21635E-04    96   0.128E-01    0.275E-03
DAV:   2    -0.367047227679E+02   -0.10958E-06   -0.24689E-06    48   0.120E-02    0.186E-03
DAV:   3    -0.367047227825E+02   -0.14593E-07   -0.30657E-07    48   0.463E-03    0.626E-04
DAV:   4    -0.367047227974E+02   -0.14934E-07   -0.92203E-08    48   0.220E-03    0.195E-04
DAV:   5    -0.367047228016E+02   -0.41769E-08   -0.33076E-08    48   0.995E-04    0.765E-05
DAV:   6    -0.367047228084E+02   -0.67485E-08   -0.20961E-08    48   0.499E-04
  16 F= -.36704723E+02 E0= -.36704723E+02  d E =-.249456E-05
       N       E                     dE             d eps       ncg     rms          rms(c)
DAV:   1    -0.367047257626E+02   -0.29610E-05   -0.34222E-04    96   0.160E-01    0.344E-03
DAV:   2    -0.367047259302E+02   -0.16759E-06   -0.39455E-06    48   0.152E-02    0.234E-03
DAV:   3    -0.367047259390E+02   -0.87678E-08   -0.49094E-07    48   0.591E-03    0.839E-04
DAV:   4    -0.367047259645E+02   -0.25564E-07   -0.14851E-07    48   0.292E-03    0.271E-04
DAV:   5    -0.367047259708E+02   -0.62437E-08   -0.45620E-08    48   0.132E-03    0.110E-04
DAV:   6    -0.367047259786E+02   -0.77769E-08   -0.25061E-08    48   0.650E-04
  17 F= -.36704726E+02 E0= -.36704726E+02  d E =-.317019E-05
       N       E                     dE             d eps       ncg     rms          rms(c)
DAV:   1    -0.367047294893E+02   -0.35185E-05   -0.51783E-04    96   0.195E-01    0.409E-03
DAV:   2    -0.367047297875E+02   -0.29829E-06   -0.59691E-06    48   0.186E-02    0.281E-03
DAV:   3    -0.367047298055E+02   -0.17949E-07   -0.71408E-07    48   0.709E-03    0.980E-04
DAV:   4    -0.367047298415E+02   -0.36041E-07   -0.20441E-07    48   0.341E-03    0.294E-04
DAV:   5    -0.367047298475E+02   -0.59372E-08   -0.60227E-08    48   0.153E-03    0.117E-04
DAV:   6    -0.367047298585E+02   -0.10976E-07   -0.30688E-08    48   0.749E-04
  18 F= -.36704730E+02 E0= -.36704730E+02  d E =-.387989E-05
       N       E                     dE             d eps       ncg     rms          rms(c)
DAV:   1    -0.367047339287E+02   -0.40813E-05   -0.77860E-04    96   0.238E-01    0.500E-03
DAV:   2    -0.367047343999E+02   -0.47111E-06   -0.90261E-06    48   0.228E-02    0.344E-03
DAV:   3    -0.367047344228E+02   -0.22948E-07   -0.10729E-06    48   0.867E-03    0.124E-03
DAV:   4    -0.367047344795E+02   -0.56690E-07   -0.30626E-07    48   0.422E-03    0.377E-04
DAV:   5    -0.367047344889E+02   -0.93614E-08   -0.84188E-08    48   0.188E-03    0.148E-04
DAV:   6    -0.367047345021E+02   -0.13288E-07   -0.38940E-08    48   0.913E-04
  19 F= -.36704735E+02 E0= -.36704735E+02  d E =-.464369E-05
       N       E                     dE             d eps       ncg     rms          rms(c)
DAV:   1    -0.367047393056E+02   -0.48167E-05   -0.11273E-03    96   0.286E-01    0.605E-03
DAV:   2    -0.367047399487E+02   -0.64308E-06   -0.13133E-05    48   0.277E-02    0.415E-03
DAV:   3    -0.367047399439E+02    0.47911E-08   -0.15782E-06    48   0.106E-02    0.155E-03
DAV:   4    -0.367047400193E+02   -0.75423E-07   -0.45731E-07    48   0.530E-03    0.471E-04
DAV:   5    -0.367047400360E+02   -0.16665E-07   -0.11888E-07    48   0.239E-03    0.189E-04
DAV:   6    -0.367047400552E+02   -0.19240E-07   -0.49949E-08    48   0.116E-03
  20 F= -.36704740E+02 E0= -.36704740E+02  d E =-.555307E-05
       N       E                     dE             d eps       ncg     rms          rms(c)
DAV:   1    -0.367047456724E+02   -0.56364E-05   -0.16166E-03    96   0.342E-01    0.728E-03
DAV:   2    -0.367047466482E+02   -0.97583E-06   -0.18716E-05    48   0.330E-02    0.496E-03
DAV:   3    -0.367047466601E+02   -0.11827E-07   -0.22310E-06    48   0.126E-02    0.182E-03
DAV:   4    -0.367047467792E+02   -0.11917E-06   -0.63680E-07    48   0.621E-03    0.559E-04
DAV:   5    -0.367047468025E+02   -0.23291E-07   -0.16082E-07    48   0.279E-03    0.223E-04
DAV:   6    -0.367047468299E+02   -0.27377E-07   -0.64567E-08    48   0.137E-03
  21 F= -.36704747E+02 E0= -.36704747E+02  d E =-.677469E-05
       N       E                     dE             d eps       ncg     rms          rms(c)
DAV:   1    -0.367047532017E+02   -0.63991E-05   -0.23886E-03    96   0.420E-01    0.910E-03
DAV:   2    -0.367047544815E+02   -0.12799E-05   -0.28067E-05    48   0.412E-02    0.616E-03
DAV:   3    -0.367047544525E+02    0.29031E-07   -0.34107E-06    48   0.158E-02    0.241E-03
DAV:   4    -0.367047546282E+02   -0.17572E-06   -0.10168E-06    48   0.813E-03    0.761E-04
DAV:   5    -0.367047546723E+02   -0.44083E-07   -0.24150E-07    48   0.365E-03    0.316E-04
DAV:   6    -0.367047547158E+02   -0.43484E-07   -0.87199E-08    48   0.176E-03
  22 F= -.36704755E+02 E0= -.36704755E+02  d E =-.788589E-05
       N       E                     dE             d eps       ncg     rms          rms(c)
DAV:   1    -0.367047580994E+02   -0.34271E-05   -0.36848E-03    96   0.530E-01    0.131E-02
DAV:   2    -0.367047593840E+02   -0.12846E-05   -0.45554E-05    64   0.549E-02    0.848E-03
DAV:   3    -0.367047590880E+02    0.29598E-06   -0.63213E-06    64   0.222E-02    0.367E-03
DAV:   4    -0.367047593826E+02   -0.29455E-06   -0.23122E-06    48   0.129E-02    0.127E-03
DAV:   5    -0.367047594198E+02   -0.37169E-07   -0.47474E-07    48   0.572E-03    0.523E-04
DAV:   6    -0.367047594775E+02   -0.57773E-07   -0.15143E-07    48   0.267E-03
  23 F= -.36704759E+02 E0= -.36704759E+02  d E =-.476175E-05
       N       E                     dE             d eps       ncg     rms          rms(c)
DAV:   1    -0.367047671654E+02   -0.77456E-05   -0.25005E-04    80   0.140E-01    0.764E-03
DAV:   2    -0.367047663062E+02    0.85917E-06   -0.41511E-06    64   0.196E-02    0.366E-03
DAV:   3    -0.367047661501E+02    0.15608E-06   -0.11738E-06    64   0.987E-03    0.158E-03
DAV:   4    -0.367047662315E+02   -0.81421E-07   -0.49015E-07    48   0.593E-03    0.589E-04
DAV:   5    -0.367047663050E+02   -0.73463E-07   -0.89690E-08    48   0.254E-03    0.254E-04
DAV:   6    -0.367047663880E+02   -0.82975E-07   -0.39184E-08    48   0.135E-03
  24 F= -.36704766E+02 E0= -.36704766E+02  d E =-.691043E-05
       N       E                     dE             d eps       ncg     rms          rms(c)
DAV:   1    -0.367047665039E+02   -0.19886E-06   -0.24164E-07    48   0.428E-03    0.126E-04
DAV:   2    -0.367047665434E+02   -0.39549E-07   -0.28481E-08    48   0.110E-03    0.898E-05
DAV:   3    -0.367047665906E+02   -0.47185E-07   -0.17595E-08    48   0.371E-04    0.523E-05
DAV:   4    -0.367047666594E+02   -0.68808E-07   -0.16350E-08    48   0.222E-04    0.156E-05
DAV:   5    -0.367047666939E+02   -0.34484E-07   -0.15530E-08    48   0.141E-04    0.129E-05
DAV:   6    -0.367047667527E+02   -0.58780E-07   -0.15153E-08    52   0.119E-04
  25 F= -.36704767E+02 E0= -.36704767E+02  d E =-.364687E-06
       N       E                     dE             d eps       ncg     rms          rms(c)
DAV:   1    -0.367047669737E+02   -0.27984E-06   -0.87116E-07    60   0.823E-03    0.184E-04
DAV:   2    -0.367047669899E+02   -0.16192E-07   -0.53944E-08    48   0.194E-03    0.123E-04
DAV:   3    -0.367047670026E+02   -0.12698E-07   -0.18048E-08    48   0.566E-04    0.744E-05
DAV:   4    -0.367047670195E+02   -0.16898E-07   -0.14451E-08    48   0.305E-04    0.198E-05
DAV:   5    -0.367047670247E+02   -0.51755E-08   -0.13476E-08    48   0.145E-04    0.171E-05
DAV:   6    -0.367047670306E+02   -0.58823E-08   -0.13007E-08    48   0.803E-05
  26 F= -.36704767E+02 E0= -.36704767E+02  d E =-.277903E-06
       N       E                     dE             d eps       ncg     rms          rms(c)
DAV:   1    -0.367047672897E+02   -0.26498E-06   -0.18673E-06    48   0.120E-02    0.257E-04
DAV:   2    -0.367047672999E+02   -0.10273E-07   -0.98175E-08    48   0.283E-03    0.172E-04
DAV:   3    -0.367047673033E+02   -0.33426E-08   -0.21933E-08    48   0.815E-04    0.100E-04
DAV:   4    -0.367047673062E+02   -0.29720E-08   -0.14940E-08    48   0.424E-04    0.252E-05
DAV:   5    -0.367047673067E+02   -0.45793E-09   -0.13189E-08    48   0.198E-04    0.226E-05
DAV:   6    -0.367047673073E+02   -0.61164E-09   -0.12605E-08    48   0.107E-04
  27 F= -.36704767E+02 E0= -.36704767E+02  d E =-.276755E-06
       N       E                     dE             d eps       ncg     rms          rms(c)
DAV:   1    -0.367047676345E+02   -0.32777E-06   -0.32042E-06    48   0.157E-02    0.321E-04
DAV:   2    -0.367047676485E+02   -0.14044E-07   -0.15884E-07    48   0.369E-03    0.215E-04
DAV:   3    -0.367047676510E+02   -0.24677E-08   -0.28499E-08    48   0.106E-03    0.118E-04
DAV:   4    -0.367047676519E+02   -0.92746E-09   -0.16383E-08    48   0.528E-04    0.280E-05
DAV:   5    -0.367047676519E+02   -0.90949E-12   -0.13610E-08    48   0.249E-04    0.261E-05
DAV:   6    -0.367047676521E+02   -0.15325E-09   -0.12718E-08    48   0.136E-04
  28 F= -.36704768E+02 E0= -.36704768E+02  d E =-.344757E-06
       N       E                     dE             d eps       ncg     rms          rms(c)
DAV:   1    -0.367047680549E+02   -0.40297E-06   -0.49294E-06    48   0.195E-02    0.391E-04
DAV:   2    -0.367047680751E+02   -0.20213E-07   -0.23795E-07    48   0.459E-03    0.262E-04
DAV:   3    -0.367047680781E+02   -0.29809E-08   -0.37308E-08    48   0.131E-03    0.138E-04
DAV:   4    -0.367047680787E+02   -0.64438E-09   -0.18458E-08    48   0.639E-04    0.314E-05
DAV:   5    -0.367047680792E+02   -0.45770E-09   -0.14289E-08    48   0.302E-04    0.297E-05
DAV:   6    -0.367047680790E+02    0.14052E-09   -0.12948E-08    48   0.168E-04
  29 F= -.36704768E+02 E0= -.36704768E+02  d E =-.426971E-06
       N       E                     dE             d eps       ncg     rms          rms(c)
DAV:   1    -0.367047685552E+02   -0.47598E-06   -0.71446E-06    48   0.236E-02    0.477E-04
DAV:   2    -0.367047685839E+02   -0.28759E-07   -0.34087E-07    48   0.556E-03    0.318E-04
DAV:   3    -0.367047685876E+02   -0.36773E-08   -0.48926E-08    48   0.160E-03    0.166E-04
DAV:   4    -0.367047685883E+02   -0.68962E-09   -0.21139E-08    48   0.771E-04    0.378E-05
DAV:   5    -0.367047685887E+02   -0.41427E-09   -0.15123E-08    48   0.366E-04    0.355E-05
DAV:   6    -0.367047685889E+02   -0.16757E-09   -0.13186E-08    48   0.205E-04
  30 F= -.36704769E+02 E0= -.36704769E+02  d E =-.509825E-06
       N       E                     dE             d eps       ncg     rms          rms(c)
DAV:   1    -0.367047691844E+02   -0.59575E-06   -0.12453E-05    48   0.315E-02    0.645E-04
DAV:   2    -0.367047692341E+02   -0.49648E-07   -0.58911E-07    48   0.744E-03    0.429E-04
DAV:   3    -0.367047692405E+02   -0.64188E-08   -0.76786E-08    48   0.214E-03    0.225E-04
DAV:   4    -0.367047692417E+02   -0.11348E-08   -0.27876E-08    48   0.103E-03    0.514E-05
DAV:   5    -0.367047692423E+02   -0.68553E-09   -0.17308E-08    48   0.491E-04    0.479E-05
DAV:   6    -0.367047692424E+02   -0.37971E-10   -0.13884E-08    48   0.275E-04
  31 F= -.36704769E+02 E0= -.36704769E+02  d E =-.653503E-06
       N       E                     dE             d eps       ncg     rms          rms(c)
DAV:   1    -0.367047699625E+02   -0.72016E-06   -0.21700E-05    48   0.421E-02    0.873E-04
DAV:   2    -0.367047700509E+02   -0.88408E-07   -0.10268E-06    48   0.996E-03    0.579E-04
DAV:   3    -0.367047700633E+02   -0.12350E-07   -0.12632E-07    48   0.289E-03    0.300E-04
DAV:   4    -0.367047700649E+02   -0.16657E-08   -0.39818E-08    48   0.138E-03    0.696E-05
DAV:   5    -0.367047700662E+02   -0.12981E-08   -0.21089E-08    48   0.658E-04    0.644E-05
DAV:   6    -0.367047700662E+02    0.20464E-10   -0.15076E-08    48   0.370E-04
  32 F= -.36704770E+02 E0= -.36704770E+02  d E =-.823826E-06
       N       E                     dE             d eps       ncg     rms          rms(c)
DAV:   1    -0.367047709138E+02   -0.84758E-06   -0.38138E-05    48   0.564E-02    0.119E-03
DAV:   2    -0.367047710725E+02   -0.15867E-06   -0.18114E-06    48   0.134E-02    0.785E-04
DAV:   3    -0.367047710962E+02   -0.23768E-07   -0.21516E-07    48   0.391E-03    0.397E-04
DAV:   4    -0.367047711000E+02   -0.37969E-08   -0.60988E-08    48   0.185E-03    0.945E-05
DAV:   5    -0.367047711019E+02   -0.18620E-08   -0.27803E-08    48   0.883E-04    0.867E-05
DAV:   6    -0.367047711018E+02    0.96179E-10   -0.17286E-08    48   0.499E-04
  33 F= -.36704771E+02 E0= -.36704771E+02  d E =-.103560E-05
       N       E                     dE             d eps       ncg     rms          rms(c)
DAV:   1    -0.367047720622E+02   -0.96032E-06   -0.68077E-05    48   0.760E-02    0.163E-03
DAV:   2    -0.367047723510E+02   -0.28882E-06   -0.32548E-06    48   0.181E-02    0.108E-03
DAV:   3    -0.367047723966E+02   -0.45553E-07   -0.37873E-07    48   0.531E-03    0.533E-04
DAV:   4    -0.367047724042E+02   -0.75756E-08   -0.99977E-08    48   0.249E-03    0.131E-04
DAV:   5    -0.367047724070E+02   -0.28615E-08   -0.40068E-08    48   0.119E-03    0.119E-04
DAV:   6    -0.367047724067E+02    0.38153E-09   -0.21278E-08    48   0.676E-04
  34 F= -.36704772E+02 E0= -.36704772E+02  d E =-.130485E-05
       N       E                     dE             d eps       ncg     rms          rms(c)
DAV:   1    -0.367047734023E+02   -0.99526E-06   -0.12292E-04    48   0.103E-01    0.225E-03
DAV:   2    -0.367047739331E+02   -0.53083E-06   -0.59238E-06    48   0.246E-02    0.149E-03
DAV:   3    -0.367047740188E+02   -0.85654E-07   -0.68253E-07    48   0.725E-03    0.723E-04
DAV:   4    -0.367047740327E+02   -0.13938E-07   -0.17182E-07    48   0.338E-03    0.181E-04
DAV:   5    -0.367047740381E+02   -0.54124E-08   -0.62360E-08    48   0.162E-03    0.163E-04
DAV:   6    -0.367047740376E+02    0.51318E-09   -0.28453E-08    48   0.918E-04
  35 F= -.36704774E+02 E0= -.36704774E+02  d E =-.163096E-05
       N       E                     dE             d eps       ncg     rms          rms(c)
DAV:   1    -0.367047759230E+02   -0.18849E-05   -0.23171E-04    96   0.139E-01    0.342E-03
DAV:   2    -0.367047759896E+02   -0.66619E-07   -0.22313E-06    48   0.123E-02    0.218E-03
DAV:   3    -0.367047760322E+02   -0.42538E-07   -0.32955E-07    48   0.507E-03    0.492E-04
DAV:   4    -0.367047760420E+02   -0.98059E-08   -0.91360E-08    48   0.225E-03    0.225E-04
DAV:   5    -0.367047760451E+02   -0.31101E-08   -0.33018E-08    48   0.108E-03    0.799E-05
DAV:   6    -0.367047760502E+02   -0.50941E-08   -0.21343E-08    48   0.599E-04
  36 F= -.36704776E+02 E0= -.36704776E+02  d E =-.201256E-05
       N       E                     dE             d eps       ncg     rms          rms(c)
DAV:   1    -0.367047783610E+02   -0.23160E-05   -0.39538E-04    96   0.182E-01    0.451E-03
DAV:   2    -0.367047784809E+02   -0.11988E-06   -0.37040E-06    48   0.160E-02    0.287E-03
DAV:   3    -0.367047785615E+02   -0.80559E-07   -0.53024E-07    48   0.652E-03    0.627E-04
DAV:   4    -0.367047785796E+02   -0.18088E-07   -0.13883E-07    48   0.285E-03    0.283E-04
DAV:   5    -0.367047785872E+02   -0.76243E-08   -0.45319E-08    48   0.136E-03    0.993E-05
DAV:   6    -0.367047785969E+02   -0.97400E-08   -0.26340E-08    48   0.749E-04
  37 F= -.36704779E+02 E0= -.36704779E+02  d E =-.254675E-05
       N       E                     dE             d eps       ncg     rms          rms(c)
DAV:   1    -0.367047814595E+02   -0.28723E-05   -0.63887E-04    96   0.231E-01    0.574E-03
DAV:   2    -0.367047816711E+02   -0.21160E-06   -0.59709E-06    48   0.203E-02    0.365E-03
DAV:   3    -0.367047818033E+02   -0.13218E-06   -0.83846E-07    48   0.824E-03    0.797E-04
DAV:   4    -0.367047818329E+02   -0.29625E-07   -0.21396E-07    48   0.359E-03    0.352E-04
DAV:   5    -0.367047818440E+02   -0.11086E-07   -0.64767E-08    48   0.172E-03    0.125E-04
DAV:   6    -0.367047818580E+02   -0.13954E-07   -0.34106E-08    48   0.937E-04
  38 F= -.36704782E+02 E0= -.36704782E+02  d E =-.326102E-05
       N       E                     dE             d eps       ncg     rms          rms(c)
DAV:   1    -0.367047855091E+02   -0.36651E-05   -0.98138E-04    96   0.286E-01    0.701E-03
DAV:   2    -0.367047858779E+02   -0.36883E-06   -0.93115E-06    48   0.251E-02    0.448E-03
DAV:   3    -0.367047860773E+02   -0.19936E-06   -0.12784E-06    48   0.102E-02    0.101E-03
DAV:   4    -0.367047861246E+02   -0.47373E-07   -0.32361E-07    48   0.444E-03    0.433E-04
DAV:   5    -0.367047861382E+02   -0.13566E-07   -0.91927E-08    48   0.212E-03    0.161E-04
DAV:   6    -0.367047861559E+02   -0.17684E-07   -0.44799E-08    48   0.114E-03
  39 F= -.36704786E+02 E0= -.36704786E+02  d E =-.429793E-05
       N       E                     dE             d eps       ncg     rms          rms(c)
DAV:   1    -0.367047908868E+02   -0.47486E-05   -0.14473E-03    96   0.345E-01    0.821E-03
DAV:   2    -0.367047915016E+02   -0.61485E-06   -0.14343E-05    48   0.308E-02    0.530E-03
DAV:   3    -0.367047917479E+02   -0.24629E-06   -0.19225E-06    56   0.124E-02    0.130E-03
DAV:   4    -0.367047918254E+02   -0.77481E-07   -0.49210E-07    48   0.548E-03    0.542E-04
DAV:   5    -0.367047918414E+02   -0.16017E-07   -0.13187E-07    48   0.260E-03    0.205E-04
DAV:   6    -0.367047918654E+02   -0.23989E-07   -0.60568E-08    48   0.140E-03
  40 F= -.36704792E+02 E0= -.36704792E+02  d E =-.570953E-05
       N       E                     dE             d eps       ncg     rms          rms(c)
DAV:   1    -0.367047920214E+02   -0.17993E-06   -0.54794E-07    48   0.662E-03    0.140E-04
DAV:   2    -0.367047920460E+02   -0.24611E-07   -0.50534E-08    48   0.165E-03    0.993E-05
DAV:   3    -0.367047920716E+02   -0.25666E-07   -0.24072E-08    48   0.578E-04    0.594E-05
DAV:   4    -0.367047921152E+02   -0.43614E-07   -0.19822E-08    48   0.332E-04    0.217E-05
DAV:   5    -0.367047921400E+02   -0.24749E-07   -0.18072E-08    48   0.186E-04    0.175E-05
DAV:   6    -0.367047922025E+02   -0.62457E-07   -0.17014E-08    48   0.161E-04
  41 F= -.36704792E+02 E0= -.36704792E+02  d E =-.337032E-06
       N       E                     dE             d eps       ncg     rms          rms(c)
DAV:   1    -0.367047924733E+02   -0.33334E-06   -0.20976E-06    48   0.132E-02    0.273E-04
DAV:   2    -0.367047924958E+02   -0.22486E-07   -0.11220E-07    48   0.311E-03    0.179E-04
DAV:   3    -0.367047925112E+02   -0.15414E-07   -0.25631E-08    48   0.898E-04    0.967E-05
DAV:   4    -0.367047925292E+02   -0.17981E-07   -0.17093E-08    48   0.439E-04    0.248E-05
DAV:   5    -0.367047925348E+02   -0.56017E-08   -0.15092E-08    48   0.207E-04    0.218E-05
DAV:   6    -0.367047925433E+02   -0.84372E-08   -0.14208E-08    48   0.119E-04
  42 F= -.36704793E+02 E0= -.36704793E+02  d E =-.340798E-06
       N       E                     dE             d eps       ncg     rms          rms(c)
DAV:   1    -0.367047929150E+02   -0.38017E-06   -0.46721E-06    48   0.197E-02    0.407E-04
DAV:   2    -0.367047929397E+02   -0.24680E-07   -0.23057E-07    48   0.463E-03    0.268E-04
DAV:   3    -0.367047929465E+02   -0.68303E-08   -0.37304E-08    48   0.134E-03    0.143E-04
DAV:   4    -0.367047929508E+02   -0.43337E-08   -0.19051E-08    48   0.645E-04    0.357E-05
DAV:   5    -0.367047929517E+02   -0.90881E-09   -0.14967E-08    48   0.302E-04    0.314E-05
DAV:   6    -0.367047929529E+02   -0.11597E-08   -0.13626E-08    48   0.169E-04
  43 F= -.36704793E+02 E0= -.36704793E+02  d E =-.409650E-06
       N       E                     dE             d eps       ncg     rms          rms(c)
DAV:   1    -0.367047934233E+02   -0.47153E-06   -0.82478E-06    48   0.261E-02    0.539E-04
DAV:   2    -0.367047934616E+02   -0.38322E-07   -0.39674E-07    48   0.614E-03    0.355E-04
DAV:   3    -0.367047934687E+02   -0.71304E-08   -0.55413E-08    48   0.177E-03    0.188E-04
DAV:   4    -0.367047934711E+02   -0.23615E-08   -0.23224E-08    48   0.852E-04    0.465E-05
DAV:   5    -0.367047934711E+02   -0.59345E-10   -0.16049E-08    48   0.400E-04    0.412E-05
DAV:   6    -0.367047934708E+02    0.32333E-09   -0.13791E-08    48   0.223E-04
  44 F= -.36704793E+02 E0= -.36704793E+02  d E =-.517924E-06
       N       E                     dE             d eps       ncg     rms          rms(c)
DAV:   1    -0.367047940376E+02   -0.56644E-06   -0.12827E-05    48   0.324E-02    0.668E-04
DAV:   2    -0.367047940953E+02   -0.57710E-07   -0.60936E-07    48   0.762E-03    0.441E-04
DAV:   3    -0.367047941055E+02   -0.10149E-07   -0.79108E-08    48   0.221E-03    0.234E-04
DAV:   4    -0.367047941081E+02   -0.26203E-08   -0.28834E-08    48   0.106E-03    0.568E-05
DAV:   5    -0.367047941078E+02    0.23806E-09   -0.17750E-08    48   0.500E-04    0.509E-05
DAV:   6    -0.367047941074E+02    0.40905E-09   -0.14249E-08    48   0.278E-04
  45 F= -.36704794E+02 E0= -.36704794E+02  d E =-.636600E-06
       N       E                     dE             d eps       ncg     rms          rms(c)
DAV:   1    -0.367047947652E+02   -0.65736E-06   -0.18418E-05    48   0.387E-02    0.795E-04
DAV:   2    -0.367047948465E+02   -0.81350E-07   -0.86825E-07    48   0.909E-03    0.526E-04
DAV:   3    -0.367047948600E+02   -0.13479E-07   -0.10824E-07    48   0.263E-03    0.279E-04
DAV:   4    -0.367047948632E+02   -0.32238E-08   -0.35804E-08    48   0.127E-03    0.661E-05
DAV:   5    -0.367047948629E+02    0.32276E-09   -0.19976E-08    48   0.598E-04    0.598E-05
DAV:   6    -0.367047948628E+02    0.17258E-09   -0.14965E-08    48   0.333E-04
  46 F= -.36704795E+02 E0= -.36704795E+02  d E =-.755328E-06
       N       E                     dE             d eps       ncg     rms          rms(c)
DAV:   1    -0.367047956776E+02   -0.81465E-06   -0.31137E-05    48   0.500E-02    0.103E-03
DAV:   2    -0.367047958116E+02   -0.13399E-06   -0.14545E-06    48   0.118E-02    0.678E-04
DAV:   3    -0.367047958329E+02   -0.21323E-07   -0.17367E-07    48   0.340E-03    0.358E-04
DAV:   4    -0.367047958374E+02   -0.44927E-08   -0.51470E-08    48   0.164E-03    0.827E-05
DAV:   5    -0.367047958376E+02   -0.19304E-09   -0.25062E-08    48   0.774E-04    0.758E-05
DAV:   6    -0.367047958369E+02    0.71213E-09   -0.16544E-08    48   0.430E-04
  47 F= -.36704796E+02 E0= -.36704796E+02  d E =-.974111E-06
       N       E                     dE             d eps       ncg     rms          rms(c)
DAV:   1    -0.367047968275E+02   -0.98993E-06   -0.51539E-05    48   0.641E-02    0.131E-03
DAV:   2    -0.367047970457E+02   -0.21816E-06   -0.23931E-06    48   0.151E-02    0.866E-04
DAV:   3    -0.367047970787E+02   -0.32990E-07   -0.27862E-07    48   0.435E-03    0.456E-04
DAV:   4    -0.367047970847E+02   -0.60770E-08   -0.76712E-08    48   0.210E-03    0.103E-04
DAV:   5    -0.367047970856E+02   -0.87562E-09   -0.33221E-08    48   0.991E-04    0.955E-05
DAV:   6    -0.367047970845E+02    0.10887E-08   -0.19220E-08    48   0.550E-04
  48 F= -.36704797E+02 E0= -.36704797E+02  d E =-.124766E-05
       N       E                     dE             d eps       ncg     rms          rms(c)
DAV:   1    -0.367047982617E+02   -0.11760E-05   -0.83760E-05    48   0.813E-02    0.165E-03
DAV:   2    -0.367047986126E+02   -0.35093E-06   -0.38726E-06    48   0.191E-02    0.110E-03
DAV:   3    -0.367047986637E+02   -0.51130E-07   -0.44397E-07    48   0.550E-03    0.578E-04
DAV:   4    -0.367047986720E+02   -0.82628E-08   -0.11629E-07    48   0.266E-03    0.128E-04
DAV:   5    -0.367047986735E+02   -0.15168E-08   -0.46204E-08    48   0.126E-03    0.120E-04
DAV:   6    -0.367047986724E+02    0.10948E-08   -0.23330E-08    48   0.697E-04
  49 F= -.36704799E+02 E0= -.36704799E+02  d E =-.158787E-05
       N       E                     dE             d eps       ncg     rms          rms(c)
DAV:   1    -0.367048005827E+02   -0.19092E-05   -0.13907E-04    80   0.102E-01    0.216E-03
DAV:   2    -0.367048006542E+02   -0.71526E-07   -0.16001E-06    48   0.982E-03    0.145E-03
DAV:   3    -0.367048006559E+02   -0.17585E-08   -0.20582E-07    48   0.376E-03    0.488E-04
DAV:   4    -0.367048006628E+02   -0.68694E-08   -0.66269E-08    48   0.179E-03    0.150E-04
DAV:   5    -0.367048006651E+02   -0.22915E-08   -0.26605E-08    48   0.830E-04    0.606E-05
DAV:   6    -0.367048006693E+02   -0.42510E-08   -0.18149E-08    48   0.421E-04
  50 F= -.36704801E+02 E0= -.36704801E+02  d E =-.199695E-05
       N       E                     dE             d eps       ncg     rms          rms(c)
DAV:   1    -0.367048030774E+02   -0.24123E-05   -0.21849E-04    96   0.128E-01    0.268E-03
DAV:   2    -0.367048031950E+02   -0.11757E-06   -0.24983E-06    48   0.123E-02    0.181E-03
DAV:   3    -0.367048031998E+02   -0.47939E-08   -0.30709E-07    48   0.465E-03    0.624E-04
DAV:   4    -0.367048032135E+02   -0.13751E-07   -0.94241E-08    48   0.222E-03    0.184E-04
DAV:   5    -0.367048032180E+02   -0.44533E-08   -0.33389E-08    48   0.102E-03    0.758E-05
DAV:   6    -0.367048032241E+02   -0.60841E-08   -0.20629E-08    48   0.508E-04
  51 F= -.36704803E+02 E0= -.36704803E+02  d E =-.255474E-05
       N       E                     dE             d eps       ncg     rms          rms(c)
DAV:   1    -0.367048062302E+02   -0.30122E-05   -0.33849E-04    96   0.159E-01    0.331E-03
DAV:   2    -0.367048064179E+02   -0.18774E-06   -0.38775E-06    48   0.153E-02    0.224E-03
DAV:   3    -0.367048064227E+02   -0.47278E-08   -0.46803E-07    48   0.578E-03    0.785E-04
DAV:   4    -0.367048064441E+02   -0.21472E-07   -0.13945E-07    48   0.277E-03    0.227E-04
DAV:   5    -0.367048064499E+02   -0.57835E-08   -0.44369E-08    48   0.127E-03    0.944E-05
DAV:   6    -0.367048064572E+02   -0.72985E-08   -0.24589E-08    48   0.630E-04
  52 F= -.36704806E+02 E0= -.36704806E+02  d E =-.323314E-05
       N       E                     dE             d eps       ncg     rms          rms(c)
DAV:   1    -0.367048101026E+02   -0.36526E-05   -0.51760E-04    96   0.196E-01    0.407E-03
DAV:   2    -0.367048103944E+02   -0.29188E-06   -0.59265E-06    48   0.190E-02    0.276E-03
DAV:   3    -0.367048103989E+02   -0.44589E-08   -0.70812E-07    48   0.715E-03    0.971E-04
DAV:   4    -0.367048104315E+02   -0.32598E-07   -0.20704E-07    48   0.343E-03    0.282E-04
DAV:   5    -0.367048104393E+02   -0.77873E-08   -0.60687E-08    48   0.157E-03    0.118E-04
DAV:   6    -0.367048104488E+02   -0.95105E-08   -0.30253E-08    48   0.774E-04
  53 F= -.36704810E+02 E0= -.36704810E+02  d E =-.399157E-05
       N       E                     dE             d eps       ncg     rms          rms(c)
DAV:   1    -0.367048148354E+02   -0.43961E-05   -0.78357E-04    96   0.242E-01    0.501E-03
DAV:   2    -0.367048153025E+02   -0.46709E-06   -0.89697E-06    48   0.234E-02    0.339E-03
DAV:   3    -0.367048153167E+02   -0.14250E-07   -0.10676E-06    48   0.882E-03    0.121E-03
DAV:   4    -0.367048153684E+02   -0.51697E-07   -0.30930E-07    48   0.426E-03    0.348E-04
DAV:   5    -0.367048153793E+02   -0.10840E-07   -0.85744E-08    48   0.195E-03    0.142E-04
DAV:   6    -0.367048153922E+02   -0.12950E-07   -0.39032E-08    48   0.969E-04
  54 F= -.36704815E+02 E0= -.36704815E+02  d E =-.494341E-05
       N       E                     dE             d eps       ncg     rms          rms(c)
DAV:   1    -0.367048204635E+02   -0.50842E-05   -0.11804E-03    96   0.297E-01    0.617E-03
DAV:   2    -0.367048211776E+02   -0.71414E-06   -0.13450E-05    48   0.286E-02    0.417E-03
DAV:   3    -0.367048212024E+02   -0.24796E-07   -0.15945E-06    48   0.108E-02    0.147E-03
DAV:   4    -0.367048212803E+02   -0.77856E-07   -0.45425E-07    48   0.518E-03    0.422E-04
DAV:   5    -0.367048212967E+02   -0.16458E-07   -0.12122E-07    48   0.238E-03    0.173E-04
DAV:   6    -0.367048213153E+02   -0.18597E-07   -0.51577E-08    48   0.119E-03
  55 F= -.36704821E+02 E0= -.36704821E+02  d E =-.592314E-05
       N       E                     dE             d eps       ncg     rms          rms(c)
DAV:   1    -0.367048271563E+02   -0.58596E-05   -0.17704E-03    96   0.365E-01    0.762E-03
DAV:   2    -0.367048282509E+02   -0.10946E-05   -0.20063E-05    48   0.350E-02    0.514E-03
DAV:   3    -0.367048283048E+02   -0.53907E-07   -0.23846E-06    48   0.133E-02    0.179E-03
DAV:   4    -0.367048284257E+02   -0.12090E-06   -0.67014E-07    48   0.632E-03    0.518E-04
DAV:   5    -0.367048284496E+02   -0.23895E-07   -0.17355E-07    48   0.291E-03    0.211E-04
DAV:   6    -0.367048284745E+02   -0.24889E-07   -0.69768E-08    48   0.146E-03
  56 F= -.36704828E+02 E0= -.36704828E+02  d E =-.715914E-05
       N       E                     dE             d eps       ncg     rms          rms(c)
DAV:   1    -0.367048351417E+02   -0.66921E-05   -0.26504E-03    96   0.448E-01    0.943E-03
DAV:   2    -0.367048367729E+02   -0.16312E-05   -0.29900E-05    48   0.427E-02    0.634E-03
DAV:   3    -0.367048368599E+02   -0.86970E-07   -0.35741E-06    48   0.163E-02    0.219E-03
DAV:   4    -0.367048370387E+02   -0.17880E-06   -0.99380E-07    48   0.774E-03    0.644E-04
DAV:   5    -0.367048370733E+02   -0.34594E-07   -0.25073E-07    48   0.357E-03    0.262E-04
DAV:   6    -0.367048371091E+02   -0.35771E-07   -0.95962E-08    48   0.179E-03
  57 F= -.36704837E+02 E0= -.36704837E+02  d E =-.863458E-05
       N       E                     dE             d eps       ncg     rms          rms(c)
DAV:   1    -0.367048443499E+02   -0.72766E-05   -0.40345E-03    96   0.554E-01    0.117E-02
DAV:   2    -0.367048468504E+02   -0.25005E-05   -0.45621E-05    48   0.529E-02    0.786E-03
DAV:   3    -0.367048469781E+02   -0.12775E-06   -0.54765E-06    48   0.202E-02    0.271E-03
DAV:   4    -0.367048472520E+02   -0.27383E-06   -0.15140E-06    48   0.964E-03    0.829E-04
DAV:   5    -0.367048472993E+02   -0.47276E-07   -0.36828E-07    48   0.438E-03    0.340E-04
DAV:   6    -0.367048473450E+02   -0.45730E-07   -0.13426E-07    48   0.217E-03
  58 F= -.36704847E+02 E0= -.36704847E+02  d E =-.102359E-04
       N       E                     dE             d eps       ncg     rms          rms(c)
DAV:   1    -0.367048497815E+02   -0.24823E-05   -0.58109E-03    96   0.665E-01    0.152E-02
DAV:   2    -0.367048524871E+02   -0.27055E-05   -0.68425E-05    64   0.657E-02    0.100E-02
DAV:   3    -0.367048522983E+02    0.18874E-06   -0.88618E-06    64   0.259E-02    0.404E-03
DAV:   4    -0.367048527338E+02   -0.43551E-06   -0.28194E-06    48   0.139E-02    0.131E-03
DAV:   5    -0.367048528428E+02   -0.10899E-06   -0.62607E-07    48   0.624E-03    0.550E-04
DAV:   6    -0.367048529423E+02   -0.99472E-07   -0.20914E-07    48   0.307E-03
  59 F= -.36704853E+02 E0= -.36704853E+02  d E =-.559731E-05
       N       E                     dE             d eps       ncg     rms          rms(c)
DAV:   1    -0.367048602635E+02   -0.74207E-05   -0.37108E-04    80   0.171E-01    0.939E-03
DAV:   2    -0.367048591813E+02    0.10822E-05   -0.61731E-06    64   0.242E-02    0.448E-03
DAV:   3    -0.367048590483E+02    0.13299E-06   -0.17388E-06    64   0.121E-02    0.194E-03
DAV:   4    -0.367048591800E+02   -0.13163E-06   -0.72305E-07    48   0.722E-03    0.725E-04
DAV:   5    -0.367048592556E+02   -0.75653E-07   -0.12581E-07    52   0.308E-03    0.313E-04
DAV:   6    -0.367048593548E+02   -0.99131E-07   -0.52740E-08    48   0.163E-03
  60 F= -.36704859E+02 E0= -.36704859E+02  d E =-.641247E-05
       N       E                     dE             d eps       ncg     rms          rms(c)
DAV:   1    -0.367048597832E+02   -0.52759E-06   -0.24777E-06    48   0.142E-02    0.649E-04
DAV:   2    -0.367048598319E+02   -0.48699E-07   -0.14532E-07    48   0.349E-03    0.358E-04
DAV:   3    -0.367048598810E+02   -0.49074E-07   -0.32072E-08    48   0.106E-03    0.202E-04
DAV:   4    -0.367048599628E+02   -0.81795E-07   -0.25144E-08    48   0.728E-04    0.611E-05
DAV:   5    -0.367048599929E+02   -0.30160E-07   -0.19896E-08    48   0.334E-04    0.443E-05
DAV:   6    -0.367048600337E+02   -0.40801E-07   -0.18265E-08    48   0.165E-04
  61 F= -.36704860E+02 E0= -.36704860E+02  d E =-.678985E-06
       N       E                     dE             d eps       ncg     rms          rms(c)
DAV:   1    -0.367048605050E+02   -0.51202E-06   -0.72957E-06    48   0.247E-02    0.103E-03
DAV:   2    -0.367048605291E+02   -0.24114E-07   -0.37545E-07    48   0.591E-03    0.582E-04
DAV:   3    -0.367048605406E+02   -0.11520E-07   -0.53098E-08    48   0.180E-03    0.331E-04
DAV:   4    -0.367048605664E+02   -0.25846E-07   -0.33960E-08    48   0.125E-03    0.105E-04
DAV:   5    -0.367048605773E+02   -0.10848E-07   -0.18724E-08    48   0.552E-04    0.760E-05
DAV:   6    -0.367048605910E+02   -0.13723E-07   -0.15578E-08    48   0.264E-04
  62 F= -.36704861E+02 E0= -.36704861E+02  d E =-.557271E-06
       N       E                     dE             d eps       ncg     rms          rms(c)
DAV:   1    -0.367048607726E+02   -0.19535E-06   -0.95359E-06    48   0.285E-02    0.106E-03
DAV:   2    -0.367048607935E+02   -0.20906E-07   -0.48321E-07    48   0.677E-03    0.616E-04
DAV:   3    -0.367048607909E+02    0.26575E-08   -0.64009E-08    48   0.209E-03    0.355E-04
DAV:   4    -0.367048607935E+02   -0.25811E-08   -0.34572E-08    48   0.134E-03    0.110E-04
DAV:   5    -0.367048607979E+02   -0.44793E-08   -0.18004E-08    48   0.597E-04    0.803E-05
DAV:   6    -0.367048608017E+02   -0.37444E-08   -0.14288E-08    48   0.287E-04
  63 F= -.36704861E+02 E0= -.36704861E+02  d E =-.210679E-06
       N       E                     dE             d eps       ncg     rms          rms(c)
DAV:   1    -0.367048609281E+02   -0.13018E-06   -0.85329E-06    48   0.270E-02    0.739E-04
DAV:   2    -0.367048609542E+02   -0.26108E-07   -0.42660E-07    48   0.637E-03    0.468E-04
DAV:   3    -0.367048609532E+02    0.10764E-08   -0.58788E-08    48   0.193E-03    0.274E-04
DAV:   4    -0.367048609518E+02    0.13190E-08   -0.26683E-08    48   0.107E-03    0.801E-05
DAV:   5    -0.367048609541E+02   -0.23022E-08   -0.16416E-08    48   0.493E-04    0.613E-05
DAV:   6    -0.367048609555E+02   -0.13531E-08   -0.13580E-08    48   0.250E-04
  64 F= -.36704861E+02 E0= -.36704861E+02  d E =-.153803E-06
       N       E                     dE             d eps       ncg     rms          rms(c)
DAV:   1    -0.367048613661E+02   -0.41199E-06   -0.95842E-06    48   0.284E-02    0.623E-04
DAV:   2    -0.367048614052E+02   -0.39056E-07   -0.46720E-07    48   0.677E-03    0.408E-04
DAV:   3    -0.367048614110E+02   -0.57776E-08   -0.63503E-08    48   0.199E-03    0.206E-04
DAV:   4    -0.367048614120E+02   -0.99453E-09   -0.24552E-08    48   0.925E-04    0.508E-05
DAV:   5    -0.367048614130E+02   -0.10550E-08   -0.16187E-08    48   0.437E-04    0.456E-05
DAV:   6    -0.367048614134E+02   -0.36061E-09   -0.13606E-08    48   0.248E-04
  65 F= -.36704861E+02 E0= -.36704861E+02  d E =-.457883E-06
       N       E                     dE             d eps       ncg     rms          rms(c)
DAV:   1    -0.367048620536E+02   -0.64054E-06   -0.15087E-05    48   0.362E-02    0.886E-04
DAV:   2    -0.367048621164E+02   -0.62880E-07   -0.74223E-07    48   0.861E-03    0.588E-04
DAV:   3    -0.367048621257E+02   -0.92252E-08   -0.96014E-08    48   0.258E-03    0.350E-04
DAV:   4    -0.367048621281E+02   -0.24411E-08   -0.36443E-08    48   0.139E-03    0.876E-05
DAV:   5    -0.367048621279E+02    0.16712E-09   -0.19032E-08    48   0.634E-04    0.756E-05
DAV:   6    -0.367048621278E+02    0.16371E-09   -0.14488E-08    48   0.345E-04
  66 F= -.36704862E+02 E0= -.36704862E+02  d E =-.714395E-06
       N       E                     dE             d eps       ncg     rms          rms(c)
DAV:   1    -0.367048627083E+02   -0.58040E-06   -0.27116E-05    48   0.486E-02    0.126E-03
DAV:   2    -0.367048628175E+02   -0.10917E-06   -0.13289E-06    48   0.116E-02    0.829E-04
DAV:   3    -0.367048628309E+02   -0.13363E-07   -0.16262E-07    48   0.348E-03    0.503E-04
DAV:   4    -0.367048628346E+02   -0.36922E-08   -0.59102E-08    48   0.195E-03    0.132E-04
DAV:   5    -0.367048628342E+02    0.37267E-09   -0.25010E-08    48   0.890E-04    0.110E-04
DAV:   6    -0.367048628336E+02    0.62926E-09   -0.16389E-08    48   0.474E-04
  67 F= -.36704863E+02 E0= -.36704863E+02  d E =-.705782E-06
       N       E                     dE             d eps       ncg     rms          rms(c)
DAV:   1    -0.367048633072E+02   -0.47300E-06   -0.37994E-05    48   0.568E-02    0.130E-03
DAV:   2    -0.367048634665E+02   -0.15932E-06   -0.18304E-06    48   0.135E-02    0.865E-04
DAV:   3    -0.367048634900E+02   -0.23442E-07   -0.22024E-07    48   0.401E-03    0.492E-04
DAV:   4    -0.367048634949E+02   -0.49417E-08   -0.67209E-08    48   0.203E-03    0.118E-04
DAV:   5    -0.367048634956E+02   -0.65847E-09   -0.28744E-08    48   0.941E-04    0.105E-04
DAV:   6    -0.367048634954E+02    0.11823E-09   -0.17898E-08    48   0.519E-04
  68 F= -.36704863E+02 E0= -.36704863E+02  d E =-.661880E-06
       N       E                     dE             d eps       ncg     rms          rms(c)
DAV:   1    -0.367048643343E+02   -0.83873E-06   -0.54526E-05    48   0.672E-02    0.145E-03
DAV:   2    -0.367048645591E+02   -0.22482E-06   -0.25816E-06    48   0.160E-02    0.953E-04
DAV:   3    -0.367048645921E+02   -0.33045E-07   -0.30119E-07    48   0.466E-03    0.489E-04
DAV:   4    -0.367048645972E+02   -0.50168E-08   -0.81860E-08    48   0.220E-03    0.117E-04
DAV:   5    -0.367048646000E+02   -0.28483E-08   -0.34913E-08    48   0.104E-03    0.106E-04
DAV:   6    -0.367048645998E+02    0.18213E-09   -0.19918E-08    48   0.582E-04
  69 F= -.36704865E+02 E0= -.36704865E+02  d E =-.110439E-05
       N       E                     dE             d eps       ncg     rms          rms(c)
DAV:   1    -0.367048655218E+02   -0.92175E-06   -0.90184E-05    48   0.867E-02    0.201E-03
DAV:   2    -0.367048658737E+02   -0.35198E-06   -0.42969E-06    48   0.205E-02    0.132E-03
DAV:   3    -0.367048659116E+02   -0.37919E-07   -0.49506E-07    48   0.605E-03    0.761E-04
DAV:   4    -0.367048659148E+02   -0.31624E-08   -0.14079E-07    48   0.312E-03    0.196E-04
DAV:   5    -0.367048659200E+02   -0.51753E-08   -0.50912E-08    48   0.145E-03    0.169E-04
DAV:   6    -0.367048659200E+02    0.36835E-10   -0.24298E-08    48   0.778E-04
  70 F= -.36704866E+02 E0= -.36704866E+02  d E =-.132012E-05
       N       E                     dE             d eps       ncg     rms          rms(c)
DAV:   1    -0.367048673099E+02   -0.13899E-05   -0.13004E-04    80   0.101E-01    0.229E-03
DAV:   2    -0.367048673546E+02   -0.44694E-07   -0.14365E-06    48   0.939E-03    0.150E-03
DAV:   3    -0.367048673597E+02   -0.51130E-08   -0.19847E-07    48   0.375E-03    0.463E-04
DAV:   4    -0.367048673668E+02   -0.71141E-08   -0.64209E-08    48   0.178E-03    0.171E-04
DAV:   5    -0.367048673701E+02   -0.33594E-08   -0.25492E-08    48   0.825E-04    0.709E-05
DAV:   6    -0.367048673747E+02   -0.45923E-08   -0.17780E-08    48   0.430E-04
  71 F= -.36704867E+02 E0= -.36704867E+02  d E =-.145478E-05
       N       E                     dE             d eps       ncg     rms          rms(c)
DAV:   1    -0.367048693569E+02   -0.19867E-05   -0.18698E-04    96   0.120E-01    0.280E-03
DAV:   2    -0.367048694410E+02   -0.84097E-07   -0.21327E-06    48   0.115E-02    0.184E-03
DAV:   3    -0.367048694563E+02   -0.15372E-07   -0.28604E-07    48   0.456E-03    0.674E-04
DAV:   4    -0.367048694733E+02   -0.16971E-07   -0.94188E-08    48   0.232E-03    0.221E-04
DAV:   5    -0.367048694765E+02   -0.31612E-08   -0.32018E-08    48   0.104E-03    0.920E-05
DAV:   6    -0.367048694822E+02   -0.57433E-08   -0.20031E-08    48   0.511E-04
  72 F= -.36704869E+02 E0= -.36704869E+02  d E =-.210747E-05
       N       E                     dE             d eps       ncg     rms          rms(c)
DAV:   1    -0.367048715632E+02   -0.20867E-05   -0.26512E-04    96   0.142E-01    0.310E-03
DAV:   2    -0.367048717038E+02   -0.14062E-06   -0.29995E-06    48   0.134E-02    0.207E-03
DAV:   3    -0.367048717239E+02   -0.20053E-07   -0.38070E-07    48   0.520E-03    0.720E-04
DAV:   4    -0.367048717446E+02   -0.20710E-07   -0.11607E-07    48   0.251E-03    0.231E-04
DAV:   5    -0.367048717488E+02   -0.42048E-08   -0.38712E-08    48   0.113E-03    0.927E-05
DAV:   6    -0.367048717558E+02   -0.70297E-08   -0.22954E-08    48   0.563E-04
  73 F= -.36704872E+02 E0= -.36704872E+02  d E =-.227360E-05
       N       E                     dE             d eps       ncg     rms          rms(c)
DAV:   1    -0.367048743494E+02   -0.26006E-05   -0.35994E-04    96   0.165E-01    0.366E-03
DAV:   2    -0.367048745036E+02   -0.15422E-06   -0.41855E-06    48   0.160E-02    0.244E-03
DAV:   3    -0.367048745018E+02    0.18216E-08   -0.54966E-07    48   0.633E-03    0.935E-04
DAV:   4    -0.367048745295E+02   -0.27696E-07   -0.17662E-07    48   0.329E-03    0.312E-04
DAV:   5    -0.367048745376E+02   -0.81127E-08   -0.51301E-08    48   0.149E-03    0.126E-04
DAV:   6    -0.367048745467E+02   -0.90876E-08   -0.27004E-08    48   0.741E-04
  74 F= -.36704875E+02 E0= -.36704875E+02  d E =-.279090E-05
       N       E                     dE             d eps       ncg     rms          rms(c)
DAV:   1    -0.367048772880E+02   -0.27504E-05   -0.46597E-04    96   0.186E-01    0.389E-03
DAV:   2    -0.367048775551E+02   -0.26704E-06   -0.53202E-06    48   0.178E-02    0.263E-03
DAV:   3    -0.367048775729E+02   -0.17867E-07   -0.64504E-07    48   0.679E-03    0.916E-04
DAV:   4    -0.367048776070E+02   -0.34076E-07   -0.18994E-07    48   0.326E-03    0.273E-04
DAV:   5    -0.367048776157E+02   -0.86943E-08   -0.57343E-08    48   0.149E-03    0.111E-04
DAV:   6    -0.367048776278E+02   -0.12142E-07   -0.29816E-08    48   0.743E-04
  75 F= -.36704878E+02 E0= -.36704878E+02  d E =-.308114E-05
       N       E                     dE             d eps       ncg     rms          rms(c)
DAV:   1    -0.367048804758E+02   -0.28601E-05   -0.63173E-04    96   0.217E-01    0.469E-03
DAV:   2    -0.367048808348E+02   -0.35906E-06   -0.73188E-06    48   0.211E-02    0.314E-03
DAV:   3    -0.367048808531E+02   -0.18269E-07   -0.90016E-07    48   0.810E-03    0.118E-03
DAV:   4    -0.367048809043E+02   -0.51212E-07   -0.27437E-07    48   0.405E-03    0.374E-04
DAV:   5    -0.367048809150E+02   -0.10686E-07   -0.76184E-08    48   0.183E-03    0.147E-04
DAV:   6    -0.367048809288E+02   -0.13770E-07   -0.35898E-08    48   0.901E-04
  76 F= -.36704881E+02 E0= -.36704881E+02  d E =-.330091E-05
       N       E                     dE             d eps       ncg     rms          rms(c)
DAV:   1    -0.367048841861E+02   -0.32711E-05   -0.85132E-04    96   0.254E-01    0.565E-03
DAV:   2    -0.367048845715E+02   -0.38541E-06   -0.99205E-06    48   0.250E-02    0.374E-03
DAV:   3    -0.367048845499E+02    0.21544E-07   -0.12662E-06    48   0.976E-03    0.145E-03
DAV:   4    -0.367048846110E+02   -0.61070E-07   -0.40118E-07    48   0.508E-03    0.486E-04
DAV:   5    -0.367048846286E+02   -0.17563E-07   -0.10223E-07    48   0.231E-03    0.204E-04
DAV:   6    -0.367048846463E+02   -0.17710E-07   -0.43704E-08    48   0.115E-03
  77 F= -.36704885E+02 E0= -.36704885E+02  d E =-.371751E-05
       N       E                     dE             d eps       ncg     rms          rms(c)
DAV:   1    -0.367048881348E+02   -0.35062E-05   -0.11551E-03    96   0.298E-01    0.674E-03
DAV:   2    -0.367048887011E+02   -0.56629E-06   -0.13394E-05    48   0.295E-02    0.443E-03
DAV:   3    -0.367048887123E+02   -0.11199E-07   -0.17292E-06    48   0.115E-02    0.172E-03
DAV:   4    -0.367048888084E+02   -0.96104E-07   -0.54975E-07    48   0.603E-03    0.572E-04
DAV:   5    -0.367048888259E+02   -0.17534E-07   -0.13487E-07    48   0.273E-03    0.232E-04
DAV:   6    -0.367048888496E+02   -0.23722E-07   -0.54718E-08    48   0.135E-03
  78 F= -.36704889E+02 E0= -.36704889E+02  d E =-.420335E-05
       N       E                     dE             d eps       ncg     rms          rms(c)
DAV:   1    -0.367048914127E+02   -0.25868E-05   -0.17161E-03    96   0.367E-01    0.914E-03
DAV:   2    -0.367048918343E+02   -0.42168E-06   -0.20491E-05    52   0.372E-02    0.582E-03
DAV:   3    -0.367048916845E+02    0.14980E-06   -0.28632E-06    64   0.151E-02    0.241E-03
DAV:   4    -0.367048918090E+02   -0.12446E-06   -0.10171E-06    48   0.842E-03    0.846E-04
DAV:   5    -0.367048918466E+02   -0.37644E-07   -0.21892E-07    48   0.377E-03    0.362E-04
DAV:   6    -0.367048918829E+02   -0.36244E-07   -0.76628E-08    48   0.182E-03
  79 F= -.36704892E+02 E0= -.36704892E+02  d E =-.303327E-05
       N       E                     dE             d eps       ncg     rms          rms(c)
DAV:   1    -0.367048944049E+02   -0.25582E-05   -0.79183E-05    48   0.806E-02    0.384E-03
DAV:   2    -0.367048945710E+02   -0.16616E-06   -0.37271E-06    48   0.190E-02    0.204E-03
DAV:   3    -0.367048945820E+02   -0.10964E-07   -0.38098E-07    48   0.568E-03    0.115E-03
DAV:   4    -0.367048946458E+02   -0.63791E-07   -0.24698E-07    56   0.428E-03    0.389E-04
DAV:   5    -0.367048946636E+02   -0.17777E-07   -0.57739E-08    48   0.189E-03    0.259E-04
DAV:   6    -0.367048946990E+02   -0.35422E-07   -0.27428E-08    48   0.916E-04
  80 F= -.36704895E+02 E0= -.36704895E+02  d E =-.281610E-05
       N       E                     dE             d eps       ncg     rms          rms(c)
DAV:   1    -0.367048931178E+02    0.15457E-05   -0.75303E-05    48   0.790E-02    0.353E-03
DAV:   2    -0.367048932960E+02   -0.17815E-06   -0.36534E-06    48   0.190E-02    0.195E-03
DAV:   3    -0.367048932869E+02    0.90976E-08   -0.38179E-07    48   0.571E-03    0.110E-03
DAV:   4    -0.367048933134E+02   -0.26478E-07   -0.23962E-07    52   0.427E-03    0.380E-04
DAV:   5    -0.367048933186E+02   -0.52671E-08   -0.57145E-08    48   0.189E-03    0.263E-04
DAV:   6    -0.367048933313E+02   -0.12720E-07   -0.27498E-08    48   0.932E-04
  81 F= -.36704893E+02 E0= -.36704893E+02  d E =0.136765E-05
       N       E                     dE             d eps       ncg     rms          rms(c)
DAV:   1    -0.367048941866E+02   -0.86801E-06   -0.38876E-06    48   0.179E-02    0.838E-04
DAV:   2    -0.367048941924E+02   -0.57587E-08   -0.19221E-07    48   0.419E-03    0.443E-04
DAV:   3    -0.367048941984E+02   -0.59551E-08   -0.31222E-08    48   0.122E-03    0.252E-04
DAV:   4    -0.367048942134E+02   -0.15057E-07   -0.24124E-08    48   0.899E-04    0.789E-05
DAV:   5    -0.367048942197E+02   -0.62417E-08   -0.15977E-08    48   0.390E-04    0.542E-05
DAV:   6    -0.367048942273E+02   -0.76352E-08   -0.14382E-08    48   0.181E-04
  82 F= -.36704894E+02 E0= -.36704894E+02  d E =-.895940E-06
       N       E                     dE             d eps       ncg     rms          rms(c)
DAV:   1    -0.367048951729E+02   -0.95320E-06   -0.11998E-05    48   0.314E-02    0.150E-03
DAV:   2    -0.367048951745E+02   -0.16619E-08   -0.57679E-07    48   0.741E-03    0.798E-04
DAV:   3    -0.367048951628E+02    0.11707E-07   -0.69402E-08    48   0.223E-03    0.447E-04
DAV:   4    -0.367048951608E+02    0.20270E-08   -0.49238E-08    48   0.169E-03    0.152E-04
DAV:   5    -0.367048951642E+02   -0.33801E-08   -0.19524E-08    48   0.745E-04    0.101E-04
DAV:   6    -0.367048951667E+02   -0.24993E-08   -0.14708E-08    48   0.357E-04
  83 F= -.36704895E+02 E0= -.36704895E+02  d E =-.939375E-06
       N       E                     dE             d eps       ncg     rms          rms(c)
DAV:   1    -0.367048954210E+02   -0.25688E-06   -0.16800E-05    48   0.373E-02    0.174E-03
DAV:   2    -0.367048954256E+02   -0.45856E-08   -0.81060E-07    48   0.884E-03    0.940E-04
DAV:   3    -0.367048954047E+02    0.20947E-07   -0.92637E-08    48   0.266E-03    0.526E-04
DAV:   4    -0.367048953952E+02    0.94758E-08   -0.63033E-08    48   0.201E-03    0.178E-04
DAV:   5    -0.367048953985E+02   -0.33431E-08   -0.21699E-08    48   0.884E-04    0.120E-04
DAV:   6    -0.367048954004E+02   -0.18306E-08   -0.15042E-08    48   0.425E-04
  84 F= -.36704895E+02 E0= -.36704895E+02  d E =-.233715E-06
       N       E                     dE             d eps       ncg     rms          rms(c)
DAV:   1    -0.367048954170E+02   -0.18424E-07   -0.24681E-08    48   0.103E-03    0.353E-05
DAV:   2    -0.367048954180E+02   -0.10159E-08   -0.13176E-08    48   0.269E-04    0.213E-05
DAV:   3    -0.367048954192E+02   -0.12340E-08   -0.12535E-08    48   0.954E-05    0.135E-05
DAV:   4    -0.367048954206E+02   -0.14149E-08   -0.12398E-08    48   0.470E-05    0.388E-06
DAV:   5    -0.367048954214E+02   -0.78649E-09   -0.12346E-08    48   0.267E-05    0.261E-06
DAV:   6    -0.367048954221E+02   -0.68758E-09   -0.12330E-08    48   0.181E-05
  85 F= -.36704895E+02 E0= -.36704895E+02  d E =-.217323E-07
       N       E                     dE             d eps       ncg     rms          rms(c)
DAV:   1    -0.367048954527E+02   -0.31279E-07   -0.58581E-08    48   0.197E-03    0.683E-05
DAV:   2    -0.367048954537E+02   -0.10348E-08   -0.14476E-08    48   0.468E-04    0.413E-05
DAV:   3    -0.367048954541E+02   -0.34470E-09   -0.12527E-08    48   0.141E-04    0.247E-05
DAV:   4    -0.367048954545E+02   -0.44315E-09   -0.12363E-08    48   0.938E-05    0.796E-06
DAV:   5    -0.367048954546E+02   -0.42064E-10   -0.12303E-08    48   0.424E-05    0.597E-06
DAV:   6    -0.367048954547E+02   -0.18213E-09   -0.12315E-08    48   0.214E-05
  86 F= -.36704895E+02 E0= -.36704895E+02  d E =-.326380E-07
       N       E                     dE             d eps       ncg     rms          rms(c)
DAV:   1    -0.367048954957E+02   -0.41085E-07   -0.11007E-07    48   0.286E-03    0.974E-05
DAV:   2    -0.367048954968E+02   -0.11817E-08   -0.17035E-08    48   0.679E-04    0.594E-05
DAV:   3    -0.367048954975E+02   -0.69167E-09   -0.12820E-08    48   0.204E-04    0.354E-05
DAV:   4    -0.367048954978E+02   -0.24511E-09   -0.12566E-08    48   0.136E-04    0.116E-05
DAV:   5    -0.367048954976E+02    0.18417E-09   -0.12392E-08    48   0.611E-05    0.869E-06
DAV:   6    -0.367048954975E+02    0.71850E-10   -0.12398E-08    48   0.312E-05
  87 F= -.36704895E+02 E0= -.36704895E+02  d E =-.427656E-07
       N       E                     dE             d eps       ncg     rms          rms(c)
DAV:   1    -0.367048955471E+02   -0.49524E-07   -0.17156E-07    48   0.365E-03    0.119E-04
DAV:   2    -0.367048955486E+02   -0.15316E-08   -0.20033E-08    48   0.864E-04    0.736E-05
DAV:   3    -0.367048955492E+02   -0.58731E-09   -0.13199E-08    48   0.260E-04    0.442E-05
DAV:   4    -0.367048955496E+02   -0.41632E-09   -0.12742E-08    48   0.170E-04    0.145E-05
DAV:   5    -0.367048955495E+02    0.15348E-09   -0.12498E-08    48   0.767E-05    0.109E-05
DAV:   6    -0.367048955493E+02    0.22101E-09   -0.12408E-08    48   0.392E-05
  88 F= -.36704896E+02 E0= -.36704896E+02  d E =-.517566E-07
       N       E                     dE             d eps       ncg     rms          rms(c)
DAV:   1    -0.367048956046E+02   -0.55144E-07   -0.23519E-07    48   0.431E-03    0.133E-04
DAV:   2    -0.367048956064E+02   -0.17744E-08   -0.23092E-08    48   0.102E-03    0.834E-05
DAV:   3    -0.367048956073E+02   -0.85902E-09   -0.13545E-08    48   0.305E-04    0.507E-05
DAV:   4    -0.367048956076E+02   -0.35288E-09   -0.12906E-08    48   0.195E-04    0.164E-05
DAV:   5    -0.367048956074E+02    0.20646E-09   -0.12515E-08    48   0.885E-05    0.124E-05
DAV:   6    -0.367048956073E+02    0.10846E-09   -0.12495E-08    48   0.452E-05
  89 F= -.36704896E+02 E0= -.36704896E+02  d E =-.580369E-07
       N       E                     dE             d eps       ncg     rms          rms(c)
DAV:   1    -0.367048956674E+02   -0.59936E-07   -0.29501E-07    48   0.483E-03    0.137E-04
DAV:   2    -0.367048956695E+02   -0.21055E-08   -0.25925E-08    48   0.114E-03    0.881E-05
DAV:   3    -0.367048956701E+02   -0.68417E-09   -0.13876E-08    48   0.339E-04    0.542E-05
DAV:   4    -0.367048956706E+02   -0.47180E-09   -0.12972E-08    48   0.210E-04    0.171E-05
DAV:   5    -0.367048956705E+02    0.91177E-10   -0.12571E-08    48   0.959E-05    0.132E-05
DAV:   6    -0.367048956705E+02    0.71850E-10   -0.12451E-08    48   0.490E-05
  90 F= -.36704896E+02 E0= -.36704896E+02  d E =-.631427E-07
       N       E                     dE             d eps       ncg     rms          rms(c)
DAV:   1    -0.367048957430E+02   -0.72483E-07   -0.42838E-07    48   0.581E-03    0.149E-04
DAV:   2    -0.367048957460E+02   -0.29569E-08   -0.32078E-08    48   0.137E-03    0.975E-05
DAV:   3    -0.367048957465E+02   -0.53819E-09   -0.14595E-08    48   0.403E-04    0.602E-05
DAV:   4    -0.367048957470E+02   -0.54797E-09   -0.13144E-08    48   0.237E-04    0.181E-05
DAV:   5    -0.367048957470E+02    0.84128E-11   -0.12641E-08    48   0.109E-04    0.146E-05
DAV:   6    -0.367048957468E+02    0.21782E-09   -0.12497E-08    48   0.560E-05
  91 F= -.36704896E+02 E0= -.36704896E+02  d E =-.763720E-07
       N       E                     dE             d eps       ncg     rms          rms(c)
DAV:   1    -0.367048958380E+02   -0.90946E-07   -0.61531E-07    48   0.691E-03    0.157E-04
DAV:   2    -0.367048958413E+02   -0.33551E-08   -0.40576E-08    48   0.163E-03    0.105E-04
DAV:   3    -0.367048958422E+02   -0.89085E-09   -0.15532E-08    48   0.473E-04    0.629E-05
DAV:   4    -0.367048958425E+02   -0.26466E-09   -0.13334E-08    48   0.260E-04    0.174E-05
DAV:   5    -0.367048958427E+02   -0.25079E-09   -0.12694E-08    48   0.120E-04    0.150E-05
DAV:   6    -0.367048958424E+02    0.31241E-09   -0.12519E-08    48   0.626E-05
  92 F= -.36704896E+02 E0= -.36704896E+02  d E =-.956132E-07
       N       E                     dE             d eps       ncg     rms          rms(c)
DAV:   1    -0.367048959606E+02   -0.11781E-06   -0.90142E-07    48   0.831E-03    0.172E-04
DAV:   2    -0.367048959648E+02   -0.42510E-08   -0.53377E-08    48   0.195E-03    0.115E-04
DAV:   3    -0.367048959656E+02   -0.74601E-09   -0.16936E-08    48   0.562E-04    0.640E-05
DAV:   4    -0.367048959660E+02   -0.39722E-09   -0.13603E-08    48   0.286E-04    0.158E-05
DAV:   5    -0.367048959661E+02   -0.11050E-09   -0.12789E-08    48   0.134E-04    0.147E-05
DAV:   6    -0.367048959661E+02   -0.73214E-10   -0.12537E-08    48   0.715E-05
  93 F= -.36704896E+02 E0= -.36704896E+02  d E =-.123701E-06
       N       E                     dE             d eps       ncg     rms          rms(c)
DAV:   1    -0.367048961211E+02   -0.15505E-06   -0.13754E-06    48   0.102E-02    0.205E-04
DAV:   2    -0.367048961267E+02   -0.55811E-08   -0.75000E-08    48   0.241E-03    0.137E-04
DAV:   3    -0.367048961274E+02   -0.68781E-09   -0.19404E-08    48   0.691E-04    0.722E-05
DAV:   4    -0.367048961278E+02   -0.38881E-09   -0.14094E-08    48   0.337E-04    0.163E-05
DAV:   5    -0.367048961280E+02   -0.17940E-09   -0.12954E-08    48   0.158E-04    0.154E-05
DAV:   6    -0.367048961278E+02    0.11710E-09   -0.12557E-08    48   0.875E-05
  94 F= -.36704896E+02 E0= -.36704896E+02  d E =-.161697E-06
       N       E                     dE             d eps       ncg     rms          rms(c)
DAV:   1    -0.367048963277E+02   -0.19971E-06   -0.21770E-06    48   0.130E-02    0.264E-04
DAV:   2    -0.367048963358E+02   -0.81283E-08   -0.11225E-07    48   0.305E-03    0.176E-04
DAV:   3    -0.367048963367E+02   -0.86175E-09   -0.23654E-08    48   0.878E-04    0.948E-05
DAV:   4    -0.367048963367E+02   -0.41382E-10   -0.15137E-08    48   0.429E-04    0.210E-05
DAV:   5    -0.367048963371E+02   -0.40882E-09   -0.13278E-08    48   0.201E-04    0.197E-05
DAV:   6    -0.367048963370E+02    0.63437E-10   -0.12675E-08    48   0.112E-04
  95 F= -.36704896E+02 E0= -.36704896E+02  d E =-.209205E-06
       N       E                     dE             d eps       ncg     rms          rms(c)
DAV:   1    -0.367048965839E+02   -0.24677E-06   -0.35000E-06    48   0.165E-02    0.345E-04
DAV:   2    -0.367048965965E+02   -0.12658E-07   -0.17423E-07    48   0.390E-03    0.230E-04
DAV:   3    -0.367048965979E+02   -0.13667E-08   -0.30713E-08    48   0.113E-03    0.127E-04
DAV:   4    -0.367048965977E+02    0.23374E-09   -0.16914E-08    48   0.557E-04    0.287E-05
DAV:   5    -0.367048965981E+02   -0.44201E-09   -0.13807E-08    48   0.261E-04    0.262E-05
DAV:   6    -0.367048965981E+02   -0.39563E-10   -0.12855E-08    48   0.144E-04
  96 F= -.36704897E+02 E0= -.36704897E+02  d E =-.261103E-06
       N       E                     dE             d eps       ncg     rms          rms(c)
DAV:   1    -0.367048968919E+02   -0.29378E-06   -0.55722E-06    48   0.210E-02    0.441E-04
DAV:   2    -0.367048969129E+02   -0.20995E-07   -0.27129E-07    48   0.495E-03    0.294E-04
DAV:   3    -0.367048969150E+02   -0.21232E-08   -0.41726E-08    48   0.143E-03    0.162E-04
DAV:   4    -0.367048969150E+02    0.14779E-10   -0.19667E-08    48   0.707E-04    0.367E-05
DAV:   5    -0.367048969155E+02   -0.53274E-09   -0.14709E-08    48   0.333E-04    0.335E-05
DAV:   6    -0.367048969157E+02   -0.13188E-09   -0.13119E-08    48   0.184E-04
  97 F= -.36704897E+02 E0= -.36704897E+02  d E =-.317512E-06
       N       E                     dE             d eps       ncg     rms          rms(c)
DAV:   1    -0.367048972629E+02   -0.34742E-06   -0.87112E-06    48   0.263E-02    0.546E-04
DAV:   2    -0.367048972969E+02   -0.33972E-07   -0.41733E-07    48   0.621E-03    0.363E-04
DAV:   3    -0.367048973012E+02   -0.42980E-08   -0.58161E-08    48   0.180E-03    0.195E-04
DAV:   4    -0.367048973017E+02   -0.47248E-09   -0.23546E-08    48   0.871E-04    0.438E-05
DAV:   5    -0.367048973025E+02   -0.82446E-09   -0.15986E-08    48   0.411E-04    0.406E-05
DAV:   6    -0.367048973025E+02   -0.10004E-10   -0.13558E-08    48   0.230E-04
  98 F= -.36704897E+02 E0= -.36704897E+02  d E =-.386869E-06
       N       E                     dE             d eps       ncg     rms          rms(c)
DAV:   1    -0.367048977223E+02   -0.41979E-06   -0.13536E-05    48   0.328E-02    0.673E-04
DAV:   2    -0.367048977775E+02   -0.55235E-07   -0.64099E-07    48   0.776E-03    0.447E-04
DAV:   3    -0.367048977857E+02   -0.81520E-08   -0.83074E-08    48   0.224E-03    0.232E-04
DAV:   4    -0.367048977870E+02   -0.12797E-08   -0.29471E-08    48   0.107E-03    0.526E-05
DAV:   5    -0.367048977876E+02   -0.64529E-09   -0.17957E-08    48   0.506E-04    0.493E-05
DAV:   6    -0.367048977877E+02   -0.11573E-09   -0.14224E-08    48   0.285E-04
  99 F= -.36704898E+02 E0= -.36704898E+02  d E =-.485205E-06
       N       E                     dE             d eps       ncg     rms          rms(c)
DAV:   1    -0.367048982943E+02   -0.50672E-06   -0.21163E-05    48   0.411E-02    0.847E-04
DAV:   2    -0.367048983825E+02   -0.88166E-07   -0.99610E-07    48   0.972E-03    0.562E-04
DAV:   3    -0.367048983965E+02   -0.13995E-07   -0.12248E-07    48   0.281E-03    0.294E-04
DAV:   4    -0.367048983994E+02   -0.29349E-08   -0.39257E-08    48   0.134E-03    0.679E-05
DAV:   5    -0.367048984000E+02   -0.53296E-09   -0.21094E-08    48   0.635E-04    0.635E-05
DAV:   6    -0.367048983998E+02    0.12051E-09   -0.15249E-08    48   0.354E-04
 100 F= -.36704898E+02 E0= -.36704898E+02  d E =-.612111E-06
       N       E                     dE             d eps       ncg     rms          rms(c)
DAV:   1    -0.367048989837E+02   -0.58374E-06   -0.32927E-05    48   0.513E-02    0.106E-03
DAV:   2    -0.367048991214E+02   -0.13770E-06   -0.15445E-06    48   0.121E-02    0.706E-04
DAV:   3    -0.367048991435E+02   -0.22056E-07   -0.18373E-07    48   0.350E-03    0.373E-04
DAV:   4    -0.367048991479E+02   -0.44738E-08   -0.54410E-08    48   0.169E-03    0.867E-05
DAV:   5    -0.367048991487E+02   -0.76670E-09   -0.25941E-08    48   0.795E-04    0.808E-05
DAV:   6    -0.367048991485E+02    0.24261E-09   -0.16795E-08    48   0.441E-04
 101 F= -.36704899E+02 E0= -.36704899E+02  d E =-.748610E-06
       N       E                     dE             d eps       ncg     rms          rms(c)
DAV:   1    -0.367048998115E+02   -0.66279E-06   -0.50121E-05    48   0.632E-02    0.130E-03
DAV:   2    -0.367049000208E+02   -0.20932E-06   -0.23418E-06    48   0.150E-02    0.862E-04
DAV:   3    -0.367049000541E+02   -0.33316E-07   -0.27332E-07    48   0.431E-03    0.450E-04
DAV:   4    -0.367049000606E+02   -0.64299E-08   -0.75535E-08    48   0.205E-03    0.102E-04
DAV:   5    -0.367049000617E+02   -0.11353E-08   -0.33045E-08    48   0.970E-04    0.954E-05
DAV:   6    -0.367049000612E+02    0.47180E-09   -0.19196E-08    48   0.542E-04
 102 F= -.36704900E+02 E0= -.36704900E+02  d E =-.912770E-06
       N       E                     dE             d eps       ncg     rms          rms(c)
DAV:   1    -0.367049008192E+02   -0.75753E-06   -0.75575E-05    48   0.775E-02    0.159E-03
DAV:   2    -0.367049011329E+02   -0.31365E-06   -0.35215E-06    48   0.183E-02    0.106E-03
DAV:   3    -0.367049011808E+02   -0.47959E-07   -0.40651E-07    48   0.528E-03    0.551E-04
DAV:   4    -0.367049011896E+02   -0.87330E-08   -0.10722E-07    48   0.251E-03    0.123E-04
DAV:   5    -0.367049011921E+02   -0.25391E-08   -0.43533E-08    48   0.119E-03    0.115E-04
DAV:   6    -0.367049011913E+02    0.81650E-09   -0.22729E-08    48   0.666E-04
 103 F= -.36704901E+02 E0= -.36704901E+02  d E =-.113006E-05
       N       E                     dE             d eps       ncg     rms          rms(c)
DAV:   1    -0.367049024911E+02   -0.12990E-05   -0.11825E-04    80   0.946E-02    0.205E-03
DAV:   2    -0.367049025447E+02   -0.53674E-07   -0.13486E-06    48   0.893E-03    0.137E-03
DAV:   3    -0.367049025510E+02   -0.62802E-08   -0.17878E-07    48   0.347E-03    0.458E-04
DAV:   4    -0.367049025581E+02   -0.71193E-08   -0.59150E-08    48   0.166E-03    0.146E-04
DAV:   5    -0.367049025605E+02   -0.23699E-08   -0.24782E-08    48   0.765E-04    0.571E-05
DAV:   6    -0.367049025644E+02   -0.39323E-08   -0.17545E-08    48   0.391E-04
 104 F= -.36704903E+02 E0= -.36704903E+02  d E =-.137315E-05
       N       E                     dE             d eps       ncg     rms          rms(c)
DAV:   1    -0.367049041472E+02   -0.15867E-05   -0.17517E-04    96   0.115E-01    0.245E-03
DAV:   2    -0.367049042406E+02   -0.93444E-07   -0.19862E-06    48   0.108E-02    0.165E-03
DAV:   3    -0.367049042559E+02   -0.15284E-07   -0.24973E-07    48   0.415E-03    0.557E-04
DAV:   4    -0.367049042694E+02   -0.13522E-07   -0.78081E-08    48   0.197E-03    0.168E-04
DAV:   5    -0.367049042729E+02   -0.34468E-08   -0.29306E-08    48   0.893E-04    0.696E-05
DAV:   6    -0.367049042776E+02   -0.47587E-08   -0.19197E-08    48   0.444E-04
 105 F= -.36704904E+02 E0= -.36704904E+02  d E =-.171318E-05
       N       E                     dE             d eps       ncg     rms          rms(c)
DAV:   1    -0.367049061181E+02   -0.18452E-05   -0.25438E-04    96   0.137E-01    0.291E-03
DAV:   2    -0.367049062590E+02   -0.14090E-06   -0.29048E-06    48   0.131E-02    0.197E-03
DAV:   3    -0.367049062764E+02   -0.17394E-07   -0.35724E-07    48   0.499E-03    0.682E-04
DAV:   4    -0.367049062956E+02   -0.19209E-07   -0.10834E-07    48   0.238E-03    0.202E-04
DAV:   5    -0.367049062989E+02   -0.33547E-08   -0.36841E-08    48   0.108E-03    0.837E-05
DAV:   6    -0.367049063042E+02   -0.52094E-08   -0.22098E-08    48   0.532E-04
 106 F= -.36704906E+02 E0= -.36704906E+02  d E =-.202655E-05
       N       E                     dE             d eps       ncg     rms          rms(c)
DAV:   1    -0.367049084725E+02   -0.21736E-05   -0.35866E-04    96   0.163E-01    0.341E-03
DAV:   2    -0.367049086687E+02   -0.19613E-06   -0.41180E-06    48   0.156E-02    0.232E-03
DAV:   3    -0.367049086812E+02   -0.12565E-07   -0.50009E-07    48   0.594E-03    0.824E-04
DAV:   4    -0.367049087068E+02   -0.25552E-07   -0.14948E-07    48   0.288E-03    0.241E-04
DAV:   5    -0.367049087119E+02   -0.51469E-08   -0.46918E-08    48   0.130E-03    0.986E-05
DAV:   6    -0.367049087195E+02   -0.75247E-08   -0.25682E-08    48   0.641E-04
 107 F= -.36704909E+02 E0= -.36704909E+02  d E =-.241530E-05
       N       E                     dE             d eps       ncg     rms          rms(c)
DAV:   1    -0.367049111612E+02   -0.24492E-05   -0.49483E-04    96   0.190E-01    0.397E-03
DAV:   2    -0.367049114460E+02   -0.28480E-06   -0.56764E-06    48   0.183E-02    0.271E-03
DAV:   3    -0.367049114615E+02   -0.15536E-07   -0.67773E-07    48   0.693E-03    0.952E-04
DAV:   4    -0.367049114955E+02   -0.33995E-07   -0.19764E-07    48   0.332E-03    0.273E-04
DAV:   5    -0.367049115027E+02   -0.71806E-08   -0.59117E-08    48   0.151E-03    0.113E-04
DAV:   6    -0.367049115124E+02   -0.97687E-08   -0.30323E-08    48   0.741E-04
 108 F= -.36704912E+02 E0= -.36704912E+02  d E =-.279299E-05
       N       E                     dE             d eps       ncg     rms          rms(c)
DAV:   1    -0.367049142424E+02   -0.27397E-05   -0.68081E-04    96   0.223E-01    0.466E-03
DAV:   2    -0.367049146457E+02   -0.40328E-06   -0.77896E-06    48   0.215E-02    0.318E-03
DAV:   3    -0.367049146672E+02   -0.21552E-07   -0.92621E-07    48   0.812E-03    0.111E-03
DAV:   4    -0.367049147147E+02   -0.47478E-07   -0.26625E-07    48   0.389E-03    0.323E-04
DAV:   5    -0.367049147245E+02   -0.97706E-08   -0.75988E-08    48   0.177E-03    0.132E-04
DAV:   6    -0.367049147371E+02   -0.12622E-07   -0.36378E-08    48   0.875E-04
 109 F= -.36704915E+02 E0= -.36704915E+02  d E =-.322463E-05
       N       E                     dE             d eps       ncg     rms          rms(c)
DAV:   1    -0.367049177619E+02   -0.30374E-05   -0.94650E-04    96   0.264E-01    0.556E-03
DAV:   2    -0.367049183055E+02   -0.54359E-06   -0.10809E-05    48   0.254E-02    0.377E-03
DAV:   3    -0.367049183182E+02   -0.12747E-07   -0.12899E-06    48   0.965E-03    0.132E-03
DAV:   4    -0.367049183788E+02   -0.60584E-07   -0.36679E-07    48   0.465E-03    0.392E-04
DAV:   5    -0.367049183926E+02   -0.13818E-07   -0.99226E-08    48   0.212E-03    0.162E-04
DAV:   6    -0.367049184085E+02   -0.15849E-07   -0.44086E-08    48   0.105E-03
 110 F= -.36704918E+02 E0= -.36704918E+02  d E =-.367137E-05
       N       E                     dE             d eps       ncg     rms          rms(c)
DAV:   1    -0.367049216118E+02   -0.32191E-05   -0.13407E-03    96   0.317E-01    0.679E-03
DAV:   2    -0.367049223911E+02   -0.77933E-06   -0.15442E-05    48   0.308E-02    0.458E-03
DAV:   3    -0.367049224054E+02   -0.14271E-07   -0.18755E-06    48   0.118E-02    0.168E-03
DAV:   4    -0.367049224960E+02   -0.90645E-07   -0.54398E-07    48   0.583E-03    0.519E-04
DAV:   5    -0.367049225137E+02   -0.17652E-07   -0.13887E-07    48   0.264E-03    0.202E-04
DAV:   6    -0.367049225356E+02   -0.21902E-07   -0.56907E-08    48   0.130E-03
 111 F= -.36704923E+02 E0= -.36704923E+02  d E =-.412710E-05
       N       E                     dE             d eps       ncg     rms          rms(c)
DAV:   1    -0.367049245345E+02   -0.20208E-05   -0.19844E-03    96   0.388E-01    0.921E-03
DAV:   2    -0.367049252669E+02   -0.73244E-06   -0.23723E-05    48   0.390E-02    0.600E-03
DAV:   3    -0.367049251055E+02    0.16135E-06   -0.31502E-06    64   0.156E-02    0.245E-03
DAV:   4    -0.367049252317E+02   -0.12618E-06   -0.10646E-06    48   0.852E-03    0.855E-04
DAV:   5    -0.367049252703E+02   -0.38621E-07   -0.23430E-07    48   0.382E-03    0.370E-04
DAV:   6    -0.367049253079E+02   -0.37598E-07   -0.82401E-08    48   0.184E-03
 112 F= -.36704925E+02 E0= -.36704925E+02  d E =-.277239E-05
       N       E                     dE             d eps       ncg     rms          rms(c)
DAV:   1    -0.367049278359E+02   -0.25655E-05   -0.84634E-05    48   0.832E-02    0.399E-03
DAV:   2    -0.367049280077E+02   -0.17181E-06   -0.39364E-06    48   0.195E-02    0.211E-03
DAV:   3    -0.367049280190E+02   -0.11273E-07   -0.40390E-07    48   0.583E-03    0.119E-03
DAV:   4    -0.367049280873E+02   -0.68371E-07   -0.25983E-07    52   0.438E-03    0.401E-04
DAV:   5    -0.367049281086E+02   -0.21271E-07   -0.60439E-08    48   0.194E-03    0.264E-04
DAV:   6    -0.367049281493E+02   -0.40716E-07   -0.28647E-08    48   0.937E-04
 113 F= -.36704928E+02 E0= -.36704928E+02  d E =-.284139E-05
       N       E                     dE             d eps       ncg     rms          rms(c)
DAV:   1    -0.367049265407E+02    0.15679E-05   -0.73489E-05    48   0.778E-02    0.347E-03
DAV:   2    -0.367049267161E+02   -0.17539E-06   -0.35042E-06    48   0.184E-02    0.191E-03
DAV:   3    -0.367049267111E+02    0.49362E-08   -0.36563E-07    48   0.554E-03    0.107E-03
DAV:   4    -0.367049267426E+02   -0.31482E-07   -0.22715E-07    52   0.412E-03    0.369E-04
DAV:   5    -0.367049267494E+02   -0.67986E-08   -0.55306E-08    48   0.183E-03    0.253E-04
DAV:   6    -0.367049267650E+02   -0.15541E-07   -0.27417E-08    48   0.902E-04
 114 F= -.36704927E+02 E0= -.36704927E+02  d E =0.138438E-05
       N       E                     dE             d eps       ncg     rms          rms(c)
DAV:   1    -0.367049276746E+02   -0.92521E-06   -0.43124E-06    48   0.188E-02    0.884E-04
DAV:   2    -0.367049276811E+02   -0.65013E-08   -0.21136E-07    48   0.439E-03    0.465E-04
DAV:   3    -0.367049276880E+02   -0.68713E-08   -0.33582E-08    48   0.128E-03    0.265E-04
DAV:   4    -0.367049277047E+02   -0.16674E-07   -0.25506E-08    48   0.942E-04    0.841E-05
DAV:   5    -0.367049277118E+02   -0.71666E-08   -0.16523E-08    48   0.411E-04    0.573E-05
DAV:   6    -0.367049277208E+02   -0.90050E-08   -0.14706E-08    48   0.193E-04
 115 F= -.36704928E+02 E0= -.36704928E+02  d E =-.955884E-06
       N       E                     dE             d eps       ncg     rms          rms(c)
DAV:   1    -0.367049287025E+02   -0.99068E-06   -0.13208E-05    48   0.330E-02    0.157E-03
DAV:   2    -0.367049287051E+02   -0.25386E-08   -0.63072E-07    48   0.775E-03    0.834E-04
DAV:   3    -0.367049286926E+02    0.12442E-07   -0.75160E-08    48   0.233E-03    0.469E-04
DAV:   4    -0.367049286911E+02    0.14672E-08   -0.52310E-08    48   0.176E-03    0.159E-04
DAV:   5    -0.367049286950E+02   -0.38417E-08   -0.20186E-08    48   0.777E-04    0.105E-04
DAV:   6    -0.367049286979E+02   -0.28933E-08   -0.14978E-08    48   0.373E-04
 116 F= -.36704929E+02 E0= -.36704929E+02  d E =-.977042E-06
       N       E                     dE             d eps       ncg     rms          rms(c)
DAV:   1    -0.367049289240E+02   -0.22906E-06   -0.18155E-05    48   0.387E-02    0.179E-03
DAV:   2    -0.367049289308E+02   -0.67356E-08   -0.87288E-07    48   0.917E-03    0.969E-04
DAV:   3    -0.367049289088E+02    0.21936E-07   -0.99246E-08    48   0.276E-03    0.546E-04
DAV:   4    -0.367049288993E+02    0.95029E-08   -0.66377E-08    48   0.208E-03    0.185E-04
DAV:   5    -0.367049289031E+02   -0.37610E-08   -0.22488E-08    48   0.913E-04    0.124E-04
DAV:   6    -0.367049289049E+02   -0.18401E-08   -0.15364E-08    48   0.442E-04
 117 F= -.36704929E+02 E0= -.36704929E+02  d E =-.207060E-06
       N       E                     dE             d eps       ncg     rms          rms(c)
DAV:   1    -0.367049289264E+02   -0.23283E-07   -0.31457E-08    48   0.128E-03    0.435E-05
DAV:   2    -0.367049289277E+02   -0.12656E-08   -0.13609E-08    48   0.327E-04    0.258E-05
DAV:   3    -0.367049289292E+02   -0.15400E-08   -0.12672E-08    48   0.112E-04    0.160E-05
DAV:   4    -0.367049289309E+02   -0.17326E-08   -0.12467E-08    48   0.554E-05    0.440E-06
DAV:   5    -0.367049289317E+02   -0.80468E-09   -0.12398E-08    48   0.303E-05    0.303E-06
DAV:   6    -0.367049289325E+02   -0.76352E-09   -0.12379E-08    48   0.198E-05
 118 F= -.36704929E+02 E0= -.36704929E+02  d E =-.275494E-07
       N       E                     dE             d eps       ncg     rms          rms(c)
DAV:   1    -0.367049289720E+02   -0.40312E-07   -0.84471E-08    48   0.247E-03    0.851E-05
DAV:   2    -0.367049289732E+02   -0.11498E-08   -0.15801E-08    48   0.585E-04    0.514E-05
DAV:   3    -0.367049289737E+02   -0.54251E-09   -0.12696E-08    48   0.176E-04    0.305E-05
DAV:   4    -0.367049289743E+02   -0.60322E-09   -0.12486E-08    48   0.115E-04    0.956E-06
DAV:   5    -0.367049289743E+02    0.68894E-10   -0.12411E-08    48   0.520E-05    0.718E-06
DAV:   6    -0.367049289741E+02    0.13051E-09   -0.12382E-08    48   0.260E-05
 119 F= -.36704929E+02 E0= -.36704929E+02  d E =-.416447E-07
       N       E                     dE             d eps       ncg     rms          rms(c)
DAV:   1    -0.367049290267E+02   -0.52477E-07   -0.16455E-07    48   0.358E-03    0.121E-04
DAV:   2    -0.367049290283E+02   -0.15509E-08   -0.19687E-08    48   0.848E-04    0.737E-05
DAV:   3    -0.367049290290E+02   -0.72305E-09   -0.13123E-08    48   0.255E-04    0.436E-05
DAV:   4    -0.367049290293E+02   -0.27103E-09   -0.12719E-08    48   0.166E-04    0.139E-05
DAV:   5    -0.367049290292E+02    0.12528E-09   -0.12506E-08    48   0.748E-05    0.104E-05
DAV:   6    -0.367049290292E+02   -0.30241E-10   -0.12421E-08    48   0.378E-05
 120 F= -.36704929E+02 E0= -.36704929E+02  d E =-.550572E-07
       N       E                     dE             d eps       ncg     rms          rms(c)
DAV:   1    -0.367049290904E+02   -0.61196E-07   -0.25969E-07    48   0.457E-03    0.148E-04
DAV:   2    -0.367049290925E+02   -0.21064E-08   -0.24306E-08    48   0.108E-03    0.913E-05
DAV:   3    -0.367049290929E+02   -0.38358E-09   -0.13684E-08    48   0.324E-04    0.544E-05
DAV:   4    -0.367049290935E+02   -0.69144E-09   -0.12957E-08    48   0.207E-04    0.172E-05
DAV:   5    -0.367049290933E+02    0.19531E-09   -0.12565E-08    48   0.937E-05    0.129E-05
DAV:   6    -0.367049290931E+02    0.21441E-09   -0.12488E-08    48   0.474E-05
 121 F= -.36704929E+02 E0= -.36704929E+02  d E =-.639376E-07
       N       E                     dE             d eps       ncg     rms          rms(c)
DAV:   1    -0.367049291592E+02   -0.65897E-07   -0.35771E-07    48   0.538E-03    0.165E-04
DAV:   2    -0.367049291619E+02   -0.26293E-08   -0.29039E-08    48   0.127E-03    0.103E-04
DAV:   3    -0.367049291628E+02   -0.97430E-09   -0.14289E-08    48   0.381E-04    0.620E-05
DAV:   4    -0.367049291631E+02   -0.22669E-09   -0.13169E-08    48   0.237E-04    0.193E-05
DAV:   5    -0.367049291629E+02    0.22351E-09   -0.12674E-08    48   0.108E-04    0.146E-05
DAV:   6    -0.367049291629E+02   -0.57753E-10   -0.12535E-08    48   0.546E-05
 122 F= -.36704929E+02 E0= -.36704929E+02  d E =-.697762E-07
       N       E                     dE             d eps       ncg     rms          rms(c)
DAV:   1    -0.367049292319E+02   -0.69030E-07   -0.44951E-07    48   0.603E-03    0.171E-04
DAV:   2    -0.367049292350E+02   -0.30727E-08   -0.33374E-08    48   0.142E-03    0.109E-04
DAV:   3    -0.367049292358E+02   -0.88153E-09   -0.14757E-08    48   0.424E-04    0.660E-05
DAV:   4    -0.367049292363E+02   -0.49226E-09   -0.13319E-08    48   0.255E-04    0.199E-05
DAV:   5    -0.367049292362E+02    0.14779E-09   -0.12740E-08    48   0.117E-04    0.155E-05
DAV:   6    -0.367049292360E+02    0.14302E-09   -0.12605E-08    48   0.593E-05
 123 F= -.36704929E+02 E0= -.36704929E+02  d E =-.731277E-07
       N       E                     dE             d eps       ncg     rms          rms(c)
DAV:   1    -0.367049293165E+02   -0.80357E-07   -0.65615E-07    48   0.727E-03    0.187E-04
DAV:   2    -0.367049293205E+02   -0.39344E-08   -0.43036E-08    48   0.171E-03    0.122E-04
DAV:   3    -0.367049293216E+02   -0.10800E-08   -0.15850E-08    48   0.506E-04    0.733E-05
DAV:   4    -0.367049293221E+02   -0.52637E-09   -0.13605E-08    48   0.289E-04    0.208E-05
DAV:   5    -0.367049293219E+02    0.15552E-09   -0.12821E-08    48   0.133E-04    0.169E-05
DAV:   6    -0.367049293219E+02    0.36152E-10   -0.12647E-08    48   0.681E-05
 124 F= -.36704929E+02 E0= -.36704929E+02  d E =-.858490E-07
       N       E                     dE             d eps       ncg     rms          rms(c)
DAV:   1    -0.367049294210E+02   -0.99083E-07   -0.94891E-07    48   0.869E-03    0.200E-04
DAV:   2    -0.367049294259E+02   -0.49420E-08   -0.56435E-08    48   0.205E-03    0.132E-04
DAV:   3    -0.367049294270E+02   -0.10675E-08   -0.17399E-08    48   0.598E-04    0.770E-05
DAV:   4    -0.367049294278E+02   -0.73669E-09   -0.13904E-08    48   0.316E-04    0.199E-05
DAV:   5    -0.367049294274E+02    0.30832E-09   -0.12911E-08    48   0.146E-04    0.174E-05
DAV:   6    -0.367049294274E+02    0.75715E-10   -0.12663E-08    48   0.770E-05
 125 F= -.36704929E+02 E0= -.36704929E+02  d E =-.105482E-06
       N       E                     dE             d eps       ncg     rms          rms(c)
DAV:   1    -0.367049295559E+02   -0.12851E-06   -0.14000E-06    48   0.105E-02    0.223E-04
DAV:   2    -0.367049295625E+02   -0.65124E-08   -0.76819E-08    48   0.248E-03    0.148E-04
DAV:   3    -0.367049295636E+02   -0.11141E-08   -0.19640E-08    48   0.714E-04    0.795E-05
DAV:   4    -0.367049295643E+02   -0.69758E-09   -0.14339E-08    48   0.348E-04    0.186E-05
DAV:   5    -0.367049295640E+02    0.29286E-09   -0.13093E-08    48   0.163E-04    0.172E-05
DAV:   6    -0.367049295641E+02   -0.11460E-09   -0.12733E-08    48   0.892E-05
 126 F= -.36704930E+02 E0= -.36704930E+02  d E =-.136727E-06
       N       E                     dE             d eps       ncg     rms          rms(c)
DAV:   1    -0.367049297340E+02   -0.17002E-06   -0.21452E-06    48   0.130E-02    0.268E-04
DAV:   2    -0.367049297430E+02   -0.90340E-08   -0.11101E-07    48   0.306E-03    0.178E-04
DAV:   3    -0.367049297443E+02   -0.12208E-08   -0.23495E-08    48   0.880E-04    0.918E-05
DAV:   4    -0.367049297444E+02   -0.17599E-09   -0.15191E-08    48   0.416E-04    0.204E-05
DAV:   5    -0.367049297445E+02   -0.87311E-10   -0.13415E-08    48   0.197E-04    0.191E-05
DAV:   6    -0.367049297445E+02   -0.54570E-11   -0.12838E-08    48   0.110E-04
 127 F= -.36704930E+02 E0= -.36704930E+02  d E =-.180429E-06
       N       E                     dE             d eps       ncg     rms          rms(c)
DAV:   1    -0.367049299625E+02   -0.21803E-06   -0.33831E-06    48   0.163E-02    0.344E-04
DAV:   2    -0.367049299759E+02   -0.13355E-07   -0.16862E-07    48   0.385E-03    0.228E-04
DAV:   3    -0.367049299774E+02   -0.14943E-08   -0.29996E-08    48   0.111E-03    0.123E-04
DAV:   4    -0.367049299774E+02   -0.30695E-10   -0.16801E-08    48   0.537E-04    0.276E-05
DAV:   5    -0.367049299777E+02   -0.29513E-09   -0.13854E-08    48   0.253E-04    0.256E-05
DAV:   6    -0.367049299777E+02    0.45929E-10   -0.12935E-08    48   0.140E-04
 128 F= -.36704930E+02 E0= -.36704930E+02  d E =-.233154E-06
       N       E                     dE             d eps       ncg     rms          rms(c)
DAV:   1    -0.367049302410E+02   -0.26326E-06   -0.53339E-06    48   0.205E-02    0.441E-04
DAV:   2    -0.367049302613E+02   -0.20266E-07   -0.25952E-07    48   0.484E-03    0.293E-04
DAV:   3    -0.367049302633E+02   -0.20632E-08   -0.40186E-08    48   0.140E-03    0.162E-04
DAV:   4    -0.367049302629E+02    0.44361E-09   -0.19375E-08    48   0.693E-04    0.374E-05
DAV:   5    -0.367049302637E+02   -0.83969E-09   -0.14695E-08    48   0.325E-04    0.342E-05
DAV:   6    -0.367049302638E+02   -0.73669E-10   -0.13197E-08    48   0.178E-04
 129 F= -.36704930E+02 E0= -.36704930E+02  d E =-.286109E-06
       N       E                     dE             d eps       ncg     rms          rms(c)
DAV:   1    -0.367049305695E+02   -0.30577E-06   -0.81829E-06    48   0.254E-02    0.540E-04
DAV:   2    -0.367049306012E+02   -0.31725E-07   -0.39068E-07    48   0.598E-03    0.359E-04
DAV:   3    -0.367049306049E+02   -0.36821E-08   -0.54829E-08    48   0.173E-03    0.197E-04
DAV:   4    -0.367049306052E+02   -0.31127E-09   -0.22966E-08    48   0.850E-04    0.451E-05
DAV:   5    -0.367049306057E+02   -0.50227E-09   -0.15787E-08    48   0.399E-04    0.415E-05
DAV:   6    -0.367049306058E+02   -0.54342E-10   -0.13551E-08    48   0.219E-04
 130 F= -.36704931E+02 E0= -.36704931E+02  d E =-.341969E-06
       N       E                     dE             d eps       ncg     rms          rms(c)
DAV:   1    -0.367049309706E+02   -0.36490E-06   -0.12197E-05    48   0.308E-02    0.637E-04
DAV:   2    -0.367049310197E+02   -0.49093E-07   -0.57304E-07    48   0.726E-03    0.423E-04
DAV:   3    -0.367049310267E+02   -0.69747E-08   -0.74970E-08    48   0.208E-03    0.223E-04
DAV:   4    -0.367049310278E+02   -0.11673E-08   -0.27528E-08    48   0.100E-03    0.494E-05
DAV:   5    -0.367049310284E+02   -0.52410E-09   -0.17359E-08    48   0.470E-04    0.465E-05
DAV:   6    -0.367049310283E+02    0.47748E-10   -0.14047E-08    48   0.261E-04
 131 F= -.36704931E+02 E0= -.36704931E+02  d E =-.422555E-06
       N       E                     dE             d eps       ncg     rms          rms(c)
DAV:   1    -0.367049314781E+02   -0.44970E-06   -0.18198E-05    48   0.375E-02    0.767E-04
DAV:   2    -0.367049315537E+02   -0.75654E-07   -0.84603E-07    48   0.883E-03    0.510E-04
DAV:   3    -0.367049315656E+02   -0.11930E-07   -0.10492E-07    48   0.252E-03    0.266E-04
DAV:   4    -0.367049315682E+02   -0.26012E-08   -0.34653E-08    48   0.120E-03    0.582E-05
DAV:   5    -0.367049315686E+02   -0.37994E-09   -0.19680E-08    48   0.565E-04    0.549E-05
DAV:   6    -0.367049315684E+02    0.27171E-09   -0.14848E-08    48   0.313E-04
 132 F= -.36704932E+02 E0= -.36704932E+02  d E =-.540046E-06
       N       E                     dE             d eps       ncg     rms          rms(c)
DAV:   1    -0.367049320992E+02   -0.53057E-06   -0.27470E-05    48   0.460E-02    0.950E-04
DAV:   2    -0.367049322137E+02   -0.11455E-06   -0.12705E-06    48   0.108E-02    0.632E-04
DAV:   3    -0.367049322321E+02   -0.18371E-07   -0.15182E-07    48   0.309E-03    0.339E-04
DAV:   4    -0.367049322362E+02   -0.40598E-08   -0.46451E-08    48   0.150E-03    0.756E-05
DAV:   5    -0.367049322363E+02   -0.12665E-09   -0.23482E-08    48   0.698E-04    0.708E-05
DAV:   6    -0.367049322361E+02    0.22078E-09   -0.16108E-08    48   0.383E-04
 133 F= -.36704932E+02 E0= -.36704932E+02  d E =-.667727E-06
       N       E                     dE             d eps       ncg     rms          rms(c)
DAV:   1    -0.367049328332E+02   -0.59694E-06   -0.40860E-05    48   0.559E-02    0.115E-03
DAV:   2    -0.367049330026E+02   -0.16938E-06   -0.18789E-06    48   0.131E-02    0.763E-04
DAV:   3    -0.367049330292E+02   -0.26563E-07   -0.21897E-07    48   0.374E-03    0.406E-04
DAV:   4    -0.367049330348E+02   -0.56395E-08   -0.62652E-08    48   0.181E-03    0.893E-05
DAV:   5    -0.367049330352E+02   -0.35425E-09   -0.28898E-08    48   0.844E-04    0.839E-05
DAV:   6    -0.367049330348E+02    0.43224E-09   -0.17917E-08    48   0.464E-04
 134 F= -.36704933E+02 E0= -.36704933E+02  d E =-.798671E-06
       N       E                     dE             d eps       ncg     rms          rms(c)
DAV:   1    -0.367049337261E+02   -0.69090E-06   -0.59417E-05    48   0.672E-02    0.136E-03
DAV:   2    -0.367049339694E+02   -0.24332E-06   -0.27191E-06    48   0.158E-02    0.908E-04
DAV:   3    -0.367049340061E+02   -0.36737E-07   -0.31195E-07    48   0.449E-03    0.474E-04
DAV:   4    -0.367049340127E+02   -0.65627E-08   -0.84518E-08    48   0.216E-03    0.102E-04
DAV:   5    -0.367049340141E+02   -0.14124E-08   -0.36293E-08    48   0.101E-03    0.967E-05
DAV:   6    -0.367049340134E+02    0.73237E-09   -0.20367E-08    48   0.557E-04
 135 F= -.36704934E+02 E0= -.36704934E+02  d E =-.978624E-06
