 vasp.5.4.1 24Jun15 (build Jan 13 2020 12:58:22) complex                        
  
 executed on           IFC91_ompi date 2020.02.03  09:53:44
 running on   15 total cores
 each image running on    1 cores
 distrk:  each k-point on    1 cores,    1 groups
 distr:  one band on NCORES_PER_BAND=   1 cores,    1 groups


--------------------------------------------------------------------------------------------------------


 INCAR:
 POTCAR:    PAW_PBE H 15Jun2001                   
 POTCAR:    PAW_PBE C 08Apr2002                   
 POTCAR:    PAW_PBE N 08Apr2002                   
 POTCAR:    PAW_PBE H 15Jun2001                   
   VRHFIN =H: ultrasoft test                                                    
   LEXCH  = PE                                                                  
   EATOM  =    12.4884 eV,    0.9179 Ry                                         
                                                                                
   TITEL  = PAW_PBE H 15Jun2001                                                 
   LULTRA =        F    use ultrasoft PP ?                                      
   IUNSCR =        0    unscreen: 0-lin 1-nonlin 2-no                           
   RPACOR =    0.000    partial core radius                                     
   POMASS =    1.000; ZVAL   =    1.000    mass and valenz                      
   RCORE  =    1.100    outmost cutoff radius                                   
   RWIGS  =    0.700; RWIGS  =    0.370    wigner-seitz radius (au A)           
   ENMAX  =  250.000; ENMIN  =  200.000 eV                                      
   RCLOC  =    0.701    cutoff for local pot                                    
   LCOR   =        T    correct aug charges                                     
   LPAW   =        T    paw PP                                                  
   EAUG   =  400.000                                                            
   RMAX   =    1.123    core radius for proj-oper                               
   RAUG   =    1.200    factor for augmentation sphere                          
   RDEP   =    1.112    radius for radial grids                                 
   RDEPT  =    0.926    core radius for aug-charge                              
                                                                                
   Atomic configuration                                                         
    2 entries                                                                   
     n  l   j            E        occ.                                          
     1  0  0.50        -6.4927   1.0000                                         
     2  1  0.50        -3.4015   0.0000                                         
   Description                                                                  
     l       E           TYP  RCUT    TYP  RCUT                                 
     0     -6.4927494     23  1.100                                             
     0      6.8029130     23  1.100                                             
     1     -4.0817478     23  1.100                                             
  local pseudopotential read in
  atomic valenz-charges read in
  non local Contribution for L=           0  read in
    real space projection operators read in
  non local Contribution for L=           0  read in
    real space projection operators read in
  non local Contribution for L=           1  read in
    real space projection operators read in
    PAW grid and wavefunctions read in
 
   number of l-projection  operators is LMAX  =           3
   number of lm-projection operators is LMMAX =           5
 
 POTCAR:    PAW_PBE C 08Apr2002                   
   VRHFIN =C: s2p2                                                              
   LEXCH  = PE                                                                  
   EATOM  =   147.1560 eV,   10.8157 Ry                                         
                                                                                
   TITEL  = PAW_PBE C 08Apr2002                                                 
   LULTRA =        F    use ultrasoft PP ?                                      
   IUNSCR =        1    unscreen: 0-lin 1-nonlin 2-no                           
   RPACOR =    1.200    partial core radius                                     
   POMASS =   12.011; ZVAL   =    4.000    mass and valenz                      
   RCORE  =    1.500    outmost cutoff radius                                   
   RWIGS  =    1.630; RWIGS  =    0.863    wigner-seitz radius (au A)           
   ENMAX  =  400.000; ENMIN  =  300.000 eV                                      
   ICORE  =        2    local potential                                         
   LCOR   =        T    correct aug charges                                     
   LPAW   =        T    paw PP                                                  
   EAUG   =  644.873                                                            
   DEXC   =    0.000                                                            
   RMAX   =    1.529    core radius for proj-oper                               
   RAUG   =    1.300    factor for augmentation sphere                          
   RDEP   =    1.501    radius for radial grids                                 
   RDEPT  =    1.300    core radius for aug-charge                              
                                                                                
   Atomic configuration                                                         
    4 entries                                                                   
     n  l   j            E        occ.                                          
     1  0  0.50      -273.3789   2.0000                                         
     2  0  0.50       -13.7508   2.0000                                         
     2  1  0.50        -5.2854   2.0000                                         
     3  2  1.50        -5.4423   0.0000                                         
   Description                                                                  
     l       E           TYP  RCUT    TYP  RCUT                                 
     0    -13.7508458     23  1.200                                             
     0     -8.2022199     23  1.200                                             
     1     -5.2854383     23  1.500                                             
     1     34.0145650     23  1.500                                             
     2     -5.4423304      7  1.500                                             
  local pseudopotential read in
  partial core-charges read in
  partial kinetic energy density read in
  atomic valenz-charges read in
  non local Contribution for L=           0  read in
    real space projection operators read in
  non local Contribution for L=           0  read in
    real space projection operators read in
  non local Contribution for L=           1  read in
    real space projection operators read in
  non local Contribution for L=           1  read in
    real space projection operators read in
    PAW grid and wavefunctions read in
 
   number of l-projection  operators is LMAX  =           4
   number of lm-projection operators is LMMAX =           8
 
 POTCAR:    PAW_PBE N 08Apr2002                   
   VRHFIN =N: s2p3                                                              
   LEXCH  = PE                                                                  
   EATOM  =   264.5486 eV,   19.4438 Ry                                         
                                                                                
   TITEL  = PAW_PBE N 08Apr2002                                                 
   LULTRA =        F    use ultrasoft PP ?                                      
   IUNSCR =        1    unscreen: 0-lin 1-nonlin 2-no                           
   RPACOR =    1.200    partial core radius                                     
   POMASS =   14.001; ZVAL   =    5.000    mass and valenz                      
   RCORE  =    1.500    outmost cutoff radius                                   
   RWIGS  =    1.400; RWIGS  =    0.741    wigner-seitz radius (au A)           
   ENMAX  =  400.000; ENMIN  =  300.000 eV                                      
   ICORE  =        2    local potential                                         
   LCOR   =        T    correct aug charges                                     
   LPAW   =        T    paw PP                                                  
   EAUG   =  627.112                                                            
   DEXC   =    0.000                                                            
   RMAX   =    1.529    core radius for proj-oper                               
   RAUG   =    1.300    factor for augmentation sphere                          
   RDEP   =    1.514    radius for radial grids                                 
   RDEPT  =    1.338    core radius for aug-charge                              
                                                                                
   Atomic configuration                                                         
    4 entries                                                                   
     n  l   j            E        occ.                                          
     1  0  0.50      -384.7179   2.0000                                         
     2  0  0.50       -18.5828   2.0000                                         
     2  1  0.50        -7.0898   3.0000                                         
     3  2  1.50        -6.8029   0.0000                                         
   Description                                                                  
     l       E           TYP  RCUT    TYP  RCUT                                 
     0    -18.5828119     23  1.200                                             
     0    -13.5018863     23  1.200                                             
     1     -7.0897853     23  1.500                                             
     1      9.5240782     23  1.500                                             
     2     -6.8029130      7  1.500                                             
  local pseudopotential read in
  partial core-charges read in
  partial kinetic energy density read in
  atomic valenz-charges read in
  non local Contribution for L=           0  read in
    real space projection operators read in
  non local Contribution for L=           0  read in
    real space projection operators read in
  non local Contribution for L=           1  read in
    real space projection operators read in
  non local Contribution for L=           1  read in
    real space projection operators read in
    PAW grid and wavefunctions read in
 
   number of l-projection  operators is LMAX  =           4
   number of lm-projection operators is LMMAX =           8
 

 ----------------------------------------------------------------------------- 
|                                                                             |
|  ADVICE TO THIS USER RUNNING 'VASP/VAMP'   (HEAR YOUR MASTER'S VOICE ...):  |
|                                                                             |
|      You have a (more or less) 'small supercell' and for smaller cells      |
|      it is recommended  to use the reciprocal-space projection scheme!      |
|      The real space optimization is not  efficient for small cells and it   |
|      is also less accurate ...                                              |
|      Therefore set LREAL=.FALSE. in the  INCAR file                         |
|                                                                             |
 ----------------------------------------------------------------------------- 

 Optimization of the real space projectors (new method)

 maximal supplied QI-value         = 34.20
 optimisation between [QCUT,QGAM] = [  9.92, 20.18] = [ 27.55,114.04] Ry 
 Optimized for a Real-space Cutoff    1.26 Angstroem

   l    n(q)    QCUT    max X(q) W(low)/X(q) W(high)/X(q)  e(spline) 
   0      8     9.919    19.460    0.50E-03    0.23E-03    0.29E-06
   0      8     9.919    12.209    0.48E-03    0.23E-03    0.28E-06
   1      7     9.919     4.655    0.17E-03    0.75E-03    0.30E-06
 Optimization of the real space projectors (new method)

 maximal supplied QI-value         = 25.13
 optimisation between [QCUT,QGAM] = [ 10.05, 20.36] = [ 28.30,116.06] Ry 
 Optimized for a Real-space Cutoff    1.30 Angstroem

   l    n(q)    QCUT    max X(q) W(low)/X(q) W(high)/X(q)  e(spline) 
   0      8    10.053   115.676    0.49E-03    0.72E-03    0.18E-06
   0      8    10.053    87.132    0.49E-03    0.71E-03    0.18E-06
   1      7    10.053     4.429    0.32E-03    0.31E-03    0.18E-06
   1      7    10.053     2.733    0.23E-03    0.19E-03    0.20E-06
 Optimization of the real space projectors (new method)

 maximal supplied QI-value         = 25.13
 optimisation between [QCUT,QGAM] = [ 10.05, 20.36] = [ 28.30,116.06] Ry 
 Optimized for a Real-space Cutoff    1.65 Angstroem

   l    n(q)    QCUT    max X(q) W(low)/X(q) W(high)/X(q)  e(spline) 
   0     10    10.053    79.467    0.76E-04    0.72E-04    0.56E-06
   0     10    10.053    66.151    0.76E-04    0.72E-04    0.55E-06
   1     10    10.053     8.350    0.25E-03    0.92E-03    0.41E-05
   1     10    10.053     5.531    0.27E-03    0.10E-02    0.45E-05
  PAW_PBE H 15Jun2001                   :
 energy of atom  1       EATOM=  -12.4884
 kinetic energy error for atom=    0.0098 (will be added to EATOM!!)
  PAW_PBE C 08Apr2002                   :
 energy of atom  2       EATOM= -147.1560
 kinetic energy error for atom=    0.0288 (will be added to EATOM!!)
  PAW_PBE N 08Apr2002                   :
 energy of atom  3       EATOM= -264.5486
 kinetic energy error for atom=    0.0736 (will be added to EATOM!!)
 
 
 POSCAR: H3 C2 N1                                
  positions in direct lattice
  velocities in cartesian coordinates
 exchange correlation table for  LEXCH =        8
   RHO(1)=    0.500       N(1)  =     2000
   RHO(2)=  100.500       N(2)  =     4000

 VTST: version 3.2, (02/03/18)

 CHAIN: initializing optimizer
 
 OPT: Using FIRE optimizer
 OPT: FIRE, Init
 OPT: FIRE, MAXMOVE       0.20000
 OPT: FIRE, TIMESTEP      0.10000
 OPT: FIRE, FTIMEMAX      1.00000
 OPT: FIRE, FTIMEINC      1.10000
 OPT: FIRE, FTIMEDEC      0.50000
 OPT: FIRE, FALPHADEC     0.99000
 OPT: FIRE, FALPHA        0.10000
 OPT: FIRE, FNMIN         5
 
 CHAIN: Read ICHAIN            0
 CHAIN: Running the NEB
 NEB:          SPRING     -5.000000
 NEB:          LCLIMB      T
 NEB:     LTANGENTOLD      F
 NEB:           LDNEB      F
 NEB:        LDNEBORG      F
 NEB:        LNEBCELL      F
 NEB:          EFIRST      0.000000
 NEB:           ELAST      0.000000
 
 POSCAR: H3 C2 N1                                
  positions in direct lattice
  No initial velocities read in
 
 POSCAR: H3 C2 N1                                
  positions in direct lattice
  No initial velocities read in
 


--------------------------------------------------------------------------------------------------------


 ion  position               nearest neighbor table
   1  0.470  0.467  0.502-   4 1.10
   2  0.472  0.516  0.468-   4 1.10
   3  0.471  0.521  0.528-   4 1.10
   4  0.484  0.501  0.500-   1 1.10   2 1.10   3 1.10   5 1.45
   5  0.532  0.499  0.501-   6 1.17   4 1.45
   6  0.571  0.497  0.502-   5 1.17
 
  LATTYP: Found a simple cubic cell.
 ALAT       =    30.0000000000
  
  Lattice vectors:
  
 A1 = (  30.0000000000,   0.0000000000,   0.0000000000)
 A2 = (   0.0000000000,  30.0000000000,   0.0000000000)
 A3 = (   0.0000000000,   0.0000000000,  30.0000000000)


Analysis of symmetry for initial positions (statically):
=====================================================================
 Subroutine PRICEL returns:
 Original cell was already a primitive cell.
 

 Routine SETGRP: Setting up the symmetry group for a 
 simple cubic supercell.


 Subroutine GETGRP returns: Found  1 space group operations
 (whereof  1 operations were pure point group operations)
 out of a pool of 48 trial point group operations.


The static configuration has the point symmetry C_1 .


Analysis of symmetry for dynamics (positions and initial velocities):
=====================================================================
 Subroutine PRICEL returns:
 Original cell was already a primitive cell.
 

 Routine SETGRP: Setting up the symmetry group for a 
 simple cubic supercell.


 Subroutine GETGRP returns: Found  1 space group operations
 (whereof  1 operations were pure point group operations)
 out of a pool of 48 trial point group operations.


The dynamic configuration has the point symmetry C_1 .
 
 
 KPOINTS: Mo2C                                    

Automatic generation of k-mesh.
Space group operators:
 irot       det(A)        alpha          n_x          n_y          n_z        tau_x        tau_y        tau_z
    1     1.000000     0.000000     1.000000     0.000000     0.000000     0.000000     0.000000     0.000000
 
 Subroutine IBZKPT returns following result:
 ===========================================
 
 Found      4 irreducible k-points:
 
 Following reciprocal coordinates:
            Coordinates               Weight
  0.250000  0.250000  0.250000      2.000000
 -0.250000  0.250000  0.250000      2.000000
  0.250000 -0.250000  0.250000      2.000000
 -0.250000 -0.250000  0.250000      2.000000
 
 Following cartesian coordinates:
            Coordinates               Weight
  0.008333  0.008333  0.008333      2.000000
 -0.008333  0.008333  0.008333      2.000000
  0.008333 -0.008333  0.008333      2.000000
 -0.008333 -0.008333  0.008333      2.000000
 


--------------------------------------------------------------------------------------------------------




 Dimension of arrays:
   k-points           NKPTS =      4   k-points in BZ     NKDIM =      4   number of bands    NBANDS=     12
   number of dos      NEDOS =    301   number of ions     NIONS =      6
   non local maximal  LDIM  =      4   non local SUM 2l+1 LMDIM =      8
   total plane-waves  NPLWV = ******
   max r-space proj   IRMAX =   2395   max aug-charges    IRDMAX=   1738
   dimension x,y,z NGX =   150 NGY =  150 NGZ =  150
   dimension x,y,z NGXF=   300 NGYF=  300 NGZF=  300
   support grid    NGXF=   300 NGYF=  300 NGZF=  300
   ions per type =               3   2   1
 NGX,Y,Z   is equivalent  to a cutoff of   8.31,  8.31,  8.31 a.u.
 NGXF,Y,Z  is equivalent  to a cutoff of  16.62, 16.62, 16.62 a.u.


 I would recommend the setting:
   dimension x,y,z NGX =   147 NGY =  147 NGZ =  147
 SYSTEM =  unknown system                          
 POSCAR =  H3 C2 N1                                

 Startparameter for this run:
   NWRITE =      2    write-flag & timer
   PREC   = normal    normal or accurate (medium, high low for compatibility)
   ISTART =      0    job   : 0-new  1-cont  2-samecut
   ICHARG =      2    charge: 1-file 2-atom 10-const
   ISPIN  =      1    spin polarized calculation?
   LNONCOLLINEAR =      F non collinear calculations
   LSORBIT =      F    spin-orbit coupling
   INIWAV =      1    electr: 0-lowe 1-rand  2-diag
   LASPH  =      F    aspherical Exc in radial PAW
   METAGGA=      F    non-selfconsistent MetaGGA calc.

 Electronic Relaxation 1
   ENCUT  =  400.0 eV  29.40 Ry    5.42 a.u.  48.92 48.92 48.92*2*pi/ulx,y,z
   ENINI  =  400.0     initial cutoff
   ENAUG  =  644.9 eV  augmentation charge cutoff
   NELM   =    500;   NELMIN=  6; NELMDL= -5     # of ELM steps 
   EDIFF  = 0.1E-03   stopping-criterion for ELM
   LREAL  =      T    real-space projection
   NLSPLINE    = F    spline interpolate recip. space projectors
   LCOMPAT=      F    compatible to vasp.4.4
   GGA_COMPAT  = T    GGA compatible to vasp.4.4-vasp.4.6
   LMAXPAW     = -100 max onsite density
   LMAXMIX     =    2 max onsite mixed and CHGCAR
   VOSKOWN=      0    Vosko Wilk Nusair interpolation
   ROPT   =   -0.00050  -0.00050  -0.00050
 Ionic relaxation
   EDIFFG = -.1E+00   stopping-criterion for IOM
   NSW    =    300    number of steps for IOM
   NBLOCK =      1;   KBLOCK =    300    inner block; outer block 
   IBRION =      3    ionic relax: 0-MD 1-quasi-New 2-CG
   NFREE  =      0    steps in history (QN), initial steepest desc. (CG)
   ISIF   =      2    stress and relaxation
   IWAVPR =     11    prediction:  0-non 1-charg 2-wave 3-comb
   ISYM   =      2    0-nonsym 1-usesym 2-fastsym
   LCORR  =      T    Harris-Foulkes like correction to forces

   POTIM  = 0.0000    time-step for ionic-motion
   TEIN   =    0.0    initial temperature
   TEBEG  =    0.0;   TEEND  =   0.0 temperature during run
   SMASS  =   2.00    Nose mass-parameter (am)
   estimated Nose-frequenzy (Omega)   =  0.12E+10 period in steps =  0.00 mass=   0.137E-25a.u.
   SCALEE = 1.0000    scale energy and forces
   NPACO  =    256;   APACO  = 16.0  distance and # of slots for P.C.
   PSTRESS=    0.0 pullay stress

  Mass of Ions in am
   POMASS =   1.00 12.01 14.00
  Ionic Valenz
   ZVAL   =   1.00  4.00  5.00
  Atomic Wigner-Seitz radii
   RWIGS  =  -1.00 -1.00 -1.00
  virtual crystal weights 
   VCA    =   1.00  1.00  1.00
   NELECT =      16.0000    total number of electrons
   NUPDOWN=      -1.0000    fix difference up-down

 DOS related values:
   EMIN   =  10.00;   EMAX   =-10.00  energy-range for DOS
   EFERMI =   0.00
   ISMEAR =     0;   SIGMA  =   0.20  broadening in eV -4-tet -1-fermi 0-gaus

 Electronic relaxation 2 (details)
   IALGO  =     38    algorithm
   LDIAG  =      T    sub-space diagonalisation (order eigenvalues)
   LSUBROT=      F    optimize rotation matrix (better conditioning)
   TURBO    =      0    0=normal 1=particle mesh
   IRESTART =      0    0=no restart 2=restart with 2 vectors
   NREBOOT  =      0    no. of reboots
   NMIN     =      0    reboot dimension
   EREF     =   0.00    reference energy to select bands
   IMIX   =      4    mixing-type and parameters
     AMIX     =   0.40;   BMIX     =  1.00
     AMIX_MAG =   1.60;   BMIX_MAG =  1.00
     AMIN     =   0.10
     WC   =   100.;   INIMIX=   1;  MIXPRE=   1;  MAXMIX= -45

 Intra band minimization:
   WEIMIN = 0.0010     energy-eigenvalue tresh-hold
   EBREAK =  0.21E-05  absolut break condition
   DEPER  =   0.30     relativ break condition  

   TIME   =   0.40     timestep for ELM

  volume/ion in A,a.u.               =    4500.00     30367.50
  Fermi-wavevector in a.u.,A,eV,Ry     =   0.137508  0.259852  0.257264  0.018908
  Thomas-Fermi vector in A             =   0.790710
 
 Write flags
   LWAVE  =      F    write WAVECAR
   LCHARG =      F    write CHGCAR
   LVTOT  =      F    write LOCPOT, total local potential
   LVHAR  =      F    write LOCPOT, Hartree potential only
   LELF   =      F    write electronic localiz. function (ELF)
   LORBIT =      0    0 simple, 1 ext, 2 COOP (PROOUT)


 Dipole corrections
   LMONO  =      F    monopole corrections only (constant potential shift)
   LDIPOL =      F    correct potential (dipole corrections)
   IDIPOL =      0    1-x, 2-y, 3-z, 4-all directions 
   EPSILON=  1.0000000 bulk dielectric constant

 Exchange correlation treatment:
   GGA     =    PE    GGA type
   LEXCH   =     8    internal setting for exchange type
   VOSKOWN=      0    Vosko Wilk Nusair interpolation
   LHFCALC =     F    Hartree Fock is set to
   LHFONE  =     F    Hartree Fock one center treatment
   AEXX    =    0.0000 exact exchange contribution

 Linear response parameters
   LEPSILON=     F    determine dielectric tensor
   LRPA    =     F    only Hartree local field effects (RPA)
   LNABLA  =     F    use nabla operator in PAW spheres
   LVEL    =     F    velocity operator in full k-point grid
   LINTERFAST=   F  fast interpolation
   KINTER  =     0    interpolate to denser k-point grid
   CSHIFT  =0.1000    complex shift for real part using Kramers Kronig
   OMEGAMAX=  -1.0    maximum frequency
   DEG_THRESHOLD= 0.2000000E-02 threshold for treating states as degnerate
   RTIME   =    0.100 relaxation time in fs

 Orbital magnetization related:
   ORBITALMAG=     F  switch on orbital magnetization
   LCHIMAG   =     F  perturbation theory with respect to B field
   DQ        =  0.001000  dq finite difference perturbation B field



--------------------------------------------------------------------------------------------------------


 quickmin algorithm: (dynamic with friction)
 charge density and potential will be updated during run
 non-spin polarized calculation
 Variant of blocked Davidson
 Davidson routine will perform the subspace rotation
 perform sub-space diagonalisation
    after iterative eigenvector-optimisation
 modified Broyden-mixing scheme, WC =      100.0
 initial mixing is a Kerker type mixing with AMIX =  0.4000 and BMIX =      1.0000
 Hartree-type preconditioning will be used
 using additional bands            4
 real space projection scheme for non local part
 use partial core corrections
 calculate Harris-corrections to forces 
   (improved forces if not selfconsistent)
 use gradient corrections 
 use of overlap-Matrix (Vanderbilt PP)
 Gauss-broadening in eV      SIGMA  =   0.20


--------------------------------------------------------------------------------------------------------


  energy-cutoff  :      400.00
  volume of cell :    27000.00
      direct lattice vectors                 reciprocal lattice vectors
    30.000000000  0.000000000  0.000000000     0.033333333  0.000000000  0.000000000
     0.000000000 30.000000000  0.000000000     0.000000000  0.033333333  0.000000000
     0.000000000  0.000000000 30.000000000     0.000000000  0.000000000  0.033333333

  length of vectors
    30.000000000 30.000000000 30.000000000     0.033333333  0.033333333  0.033333333


 
 k-points in units of 2pi/SCALE and weight: Mo2C                                    
   0.00833333  0.00833333  0.00833333       0.250
  -0.00833333  0.00833333  0.00833333       0.250
   0.00833333 -0.00833333  0.00833333       0.250
  -0.00833333 -0.00833333  0.00833333       0.250
 
 k-points in reciprocal lattice and weights: Mo2C                                    
   0.25000000  0.25000000  0.25000000       0.250
  -0.25000000  0.25000000  0.25000000       0.250
   0.25000000 -0.25000000  0.25000000       0.250
  -0.25000000 -0.25000000  0.25000000       0.250
 
 position of ions in fractional coordinates (direct lattice) 
   0.46964410  0.46687802  0.50206605
   0.47239925  0.51575532  0.46821625
   0.47106670  0.52068907  0.52754511
   0.48373617  0.50062218  0.49961376
   0.53215151  0.49877106  0.50082319
   0.57100744  0.49729889  0.50173222
 
 position of ions in cartesian coordinates  (Angst):
  14.08932304 14.00634065 15.06198157
  14.17197738 15.47265972 14.04648763
  14.13200098 15.62067207 15.82635342
  14.51208515 15.01866554 14.98841267
  15.96454521 14.96313177 15.02469562
  17.13022313 14.91896674 15.05196663
 


--------------------------------------------------------------------------------------------------------


 k-point  1 :   0.2500 0.2500 0.2500  plane waves:  490454
 k-point  2 :  -0.2500 0.2500 0.2500  plane waves:  490454
 k-point  3 :   0.2500-0.2500 0.2500  plane waves:  490454
 k-point  4 :  -0.2500-0.2500 0.2500  plane waves:  490454

 maximum and minimum number of plane-waves per node :    490454   490454

 maximum number of plane-waves:    490454
 maximum index in each direction: 
   IXMAX=   49   IYMAX=   49   IZMAX=   48
   IXMIN=  -49   IYMIN=  -49   IZMIN=  -49

 WARNING: aliasing errors must be expected set NGX to 198 to avoid them
 WARNING: aliasing errors must be expected set NGY to 198 to avoid them
 WARNING: aliasing errors must be expected set NGZ to 196 to avoid them
 aliasing errors are usually negligible using standard VASP settings
 and one can safely disregard these warnings

 serial   3D FFT for wavefunctions
 parallel 3D FFT for charge:
    minimum data exchange during FFTs selected (reduces bandwidth)


 total amount of memory used by VASP on root node  3203891. kBytes
========================================================================

   base      :      30000. kBytes
   nonlr-proj:        695. kBytes
   fftplans  :     924480. kBytes
   grid      :    1872000. kBytes
   one-center:         18. kBytes
   wavefun   :     376698. kBytes
 
     INWAV:  cpu time    0.0010: real time    0.0003
 Broyden mixing: mesh for mixing (old mesh)
   NGX = 97   NGY = 97   NGZ = 97
  (NGX  =300   NGY  =300   NGZ  =300)
  gives a total of 912673 points

 initial charge density was supplied:
 charge density of overlapping atoms calculated
 number of electron      16.0000000 magnetization 
 keeping initial charge density in first step


--------------------------------------------------------------------------------------------------------


 Maximum index for non-local projection operator         2285
 Maximum index for augmentation-charges         1498 (set IRDMAX)


--------------------------------------------------------------------------------------------------------


 First call to EWALD:  gamma=   0.059
 Maximum number of real-space cells 3x 3x 3
 Maximum number of reciprocal cells 3x 3x 3

 FEWALD executed in parallel
    FEWALD:  cpu time    0.0020: real time    0.0020


----------------------------------------- Iteration    1(   1)  ---------------------------------------


    POTLOK:  cpu time   17.8493: real time   17.8365
    SETDIJ:  cpu time    0.0080: real time    0.0080
     EDDAV:  cpu time   88.5265: real time   88.4604
       DOS:  cpu time    0.0000: real time    0.0003
    --------------------------------------------
      LOOP:  cpu time  106.3868: real time  106.3097

 eigenvalue-minimisations  :   160
 total energy-change (2. order) : 0.1159991E+03  (-0.2116895E+03)
 number of electron      16.0000000 magnetization 
 augmentation part       16.0000000 magnetization 

 Free energy of the ion-electron system (eV)
  ---------------------------------------------------
  alpha Z        PSCENC =         0.04144063
  Ewald energy   TEWEN  =       672.78720949
  -Hartree energ DENC   =     -1086.93190580
  -exchange      EXHF   =         0.00000000
  -V(xc)+E(xc)   XCENC  =        51.35996231
  PAW double counting   =       428.37890668     -430.73533574
  entropy T*S    EENTRO =        -0.17520336
  eigenvalues    EBANDS =      -114.89135967
  atomic energy  EATOM  =       596.16534815
  Solvation  Ediel_sol  =         0.00000000
  ---------------------------------------------------
  free energy    TOTEN  =       115.99906268 eV

  energy without entropy =      116.17426604  energy(sigma->0) =      116.08666436


--------------------------------------------------------------------------------------------------------




----------------------------------------- Iteration    1(   2)  ---------------------------------------


     EDDAV:  cpu time  105.7739: real time  105.7169
       DOS:  cpu time    0.0000: real time    0.0002
    --------------------------------------------
      LOOP:  cpu time  105.7759: real time  105.7206

 eigenvalue-minimisations  :   192
 total energy-change (2. order) :-0.1161591E+03  (-0.1134532E+03)
 number of electron      16.0000000 magnetization 
 augmentation part       16.0000000 magnetization 

 Free energy of the ion-electron system (eV)
  ---------------------------------------------------
  alpha Z        PSCENC =         0.04144063
  Ewald energy   TEWEN  =       672.78720949
  -Hartree energ DENC   =     -1086.93190580
  -exchange      EXHF   =         0.00000000
  -V(xc)+E(xc)   XCENC  =        51.35996231
  PAW double counting   =       428.37890668     -430.73533574
  entropy T*S    EENTRO =         0.00000000
  eigenvalues    EBANDS =      -231.22564112
  atomic energy  EATOM  =       596.16534815
  Solvation  Ediel_sol  =         0.00000000
  ---------------------------------------------------
  free energy    TOTEN  =        -0.16001540 eV

  energy without entropy =       -0.16001540  energy(sigma->0) =       -0.16001540


--------------------------------------------------------------------------------------------------------




----------------------------------------- Iteration    1(   3)  ---------------------------------------


     EDDAV:  cpu time   78.7670: real time   78.7029
       DOS:  cpu time    0.0000: real time    0.0002
    --------------------------------------------
      LOOP:  cpu time   78.7680: real time   78.7067

 eigenvalue-minimisations  :   128
 total energy-change (2. order) :-0.3706868E+02  (-0.3696561E+02)
 number of electron      16.0000000 magnetization 
 augmentation part       16.0000000 magnetization 

 Free energy of the ion-electron system (eV)
  ---------------------------------------------------
  alpha Z        PSCENC =         0.04144063
  Ewald energy   TEWEN  =       672.78720949
  -Hartree energ DENC   =     -1086.93190580
  -exchange      EXHF   =         0.00000000
  -V(xc)+E(xc)   XCENC  =        51.35996231
  PAW double counting   =       428.37890668     -430.73533574
  entropy T*S    EENTRO =         0.00000000
  eigenvalues    EBANDS =      -268.29431862
  atomic energy  EATOM  =       596.16534815
  Solvation  Ediel_sol  =         0.00000000
  ---------------------------------------------------
  free energy    TOTEN  =       -37.22869290 eV

  energy without entropy =      -37.22869290  energy(sigma->0) =      -37.22869290


--------------------------------------------------------------------------------------------------------




----------------------------------------- Iteration    1(   4)  ---------------------------------------


     EDDAV:  cpu time   79.6049: real time   79.5405
       DOS:  cpu time    0.0000: real time    0.0002
    --------------------------------------------
      LOOP:  cpu time   79.6059: real time   79.5436

 eigenvalue-minimisations  :   128
 total energy-change (2. order) :-0.3513561E+01  (-0.3497151E+01)
 number of electron      16.0000000 magnetization 
 augmentation part       16.0000000 magnetization 

 Free energy of the ion-electron system (eV)
  ---------------------------------------------------
  alpha Z        PSCENC =         0.04144063
  Ewald energy   TEWEN  =       672.78720949
  -Hartree energ DENC   =     -1086.93190580
  -exchange      EXHF   =         0.00000000
  -V(xc)+E(xc)   XCENC  =        51.35996231
  PAW double counting   =       428.37890668     -430.73533574
  entropy T*S    EENTRO =         0.00000000
  eigenvalues    EBANDS =      -271.80787914
  atomic energy  EATOM  =       596.16534815
  Solvation  Ediel_sol  =         0.00000000
  ---------------------------------------------------
  free energy    TOTEN  =       -40.74225342 eV

  energy without entropy =      -40.74225342  energy(sigma->0) =      -40.74225342


--------------------------------------------------------------------------------------------------------




----------------------------------------- Iteration    1(   5)  ---------------------------------------


     EDDAV:  cpu time   83.7293: real time   83.6606
       DOS:  cpu time    0.0000: real time    0.0002
    CHARGE:  cpu time    5.7301: real time    5.7256
    MIXING:  cpu time    0.6059: real time    0.6052
    --------------------------------------------
      LOOP:  cpu time   90.0663: real time   89.9948

 eigenvalue-minimisations  :   136
 total energy-change (2. order) :-0.8251728E-01  (-0.8037018E-01)
 number of electron      15.9999989 magnetization 
 augmentation part        0.5265758 magnetization 

 Broyden mixing:
  rms(total) = 0.10917E+01    rms(broyden)= 0.10909E+01
  rms(prec ) = 0.11348E+01
  weight for this iteration     100.00

 Free energy of the ion-electron system (eV)
  ---------------------------------------------------
  alpha Z        PSCENC =         0.04144063
  Ewald energy   TEWEN  =       672.78720949
  -Hartree energ DENC   =     -1086.93190580
  -exchange      EXHF   =         0.00000000
  -V(xc)+E(xc)   XCENC  =        51.35996231
  PAW double counting   =       428.37890668     -430.73533574
  entropy T*S    EENTRO =         0.00000000
  eigenvalues    EBANDS =      -271.89039643
  atomic energy  EATOM  =       596.16534815
  Solvation  Ediel_sol  =         0.00000000
  ---------------------------------------------------
  free energy    TOTEN  =       -40.82477071 eV

  energy without entropy =      -40.82477071  energy(sigma->0) =      -40.82477071


--------------------------------------------------------------------------------------------------------




----------------------------------------- Iteration    1(   6)  ---------------------------------------


    POTLOK:  cpu time   18.1872: real time   18.1729
    SETDIJ:  cpu time    0.0080: real time    0.0082
     EDDAV:  cpu time   73.4618: real time   73.4012
       DOS:  cpu time    0.0000: real time    0.0002
    CHARGE:  cpu time    5.7651: real time    5.7607
    MIXING:  cpu time    0.6369: real time    0.6368
    --------------------------------------------
      LOOP:  cpu time   98.0611: real time   97.9834

 eigenvalue-minimisations  :   116
 total energy-change (2. order) : 0.3281367E+01  (-0.6716205E+00)
 number of electron      15.9999991 magnetization 
 augmentation part        0.4531124 magnetization 

 Broyden mixing:
  rms(total) = 0.59393E+00    rms(broyden)= 0.59366E+00
  rms(prec ) = 0.60992E+00
  weight for this iteration     100.00

 eigenvalues of (default mixing * dielectric matrix)
  average eigenvalue GAMMA=   1.2565
  1.2565

 Free energy of the ion-electron system (eV)
  ---------------------------------------------------
  alpha Z        PSCENC =         0.04144063
  Ewald energy   TEWEN  =       672.78720949
  -Hartree energ DENC   =     -1118.87468073
  -exchange      EXHF   =         0.00000000
  -V(xc)+E(xc)   XCENC  =        53.15131979
  PAW double counting   =       731.33407226     -734.01793606
  entropy T*S    EENTRO =         0.00000000
  eigenvalues    EBANDS =      -238.13017754
  atomic energy  EATOM  =       596.16534815
  Solvation  Ediel_sol  =         0.00000000
  ---------------------------------------------------
  free energy    TOTEN  =       -37.54340401 eV

  energy without entropy =      -37.54340401  energy(sigma->0) =      -37.54340401


--------------------------------------------------------------------------------------------------------




----------------------------------------- Iteration    1(   7)  ---------------------------------------


    POTLOK:  cpu time   18.6672: real time   18.6532
    SETDIJ:  cpu time    0.0090: real time    0.0083
     EDDAV:  cpu time   72.7349: real time   72.6755
       DOS:  cpu time    0.0000: real time    0.0002
    CHARGE:  cpu time    5.7601: real time    5.7564
    MIXING:  cpu time    0.6969: real time    0.6953
    --------------------------------------------
      LOOP:  cpu time   97.8701: real time   97.7923

 eigenvalue-minimisations  :   116
 total energy-change (2. order) : 0.6571065E+00  (-0.1410200E+00)
 number of electron      15.9999990 magnetization 
 augmentation part        0.4555062 magnetization 

 Broyden mixing:
  rms(total) = 0.30138E+00    rms(broyden)= 0.30132E+00
  rms(prec ) = 0.30952E+00
  weight for this iteration     100.00

 eigenvalues of (default mixing * dielectric matrix)
  average eigenvalue GAMMA=   1.4444
  0.9039  1.9849

 Free energy of the ion-electron system (eV)
  ---------------------------------------------------
  alpha Z        PSCENC =         0.04144063
  Ewald energy   TEWEN  =       672.78720949
  -Hartree energ DENC   =     -1135.73806238
  -exchange      EXHF   =         0.00000000
  -V(xc)+E(xc)   XCENC  =        54.07352569
  PAW double counting   =      1036.00803649    -1038.80247862
  entropy T*S    EENTRO =         0.00000000
  eigenvalues    EBANDS =      -221.42131695
  atomic energy  EATOM  =       596.16534815
  Solvation  Ediel_sol  =         0.00000000
  ---------------------------------------------------
  free energy    TOTEN  =       -36.88629750 eV

  energy without entropy =      -36.88629750  energy(sigma->0) =      -36.88629750


--------------------------------------------------------------------------------------------------------




----------------------------------------- Iteration    1(   8)  ---------------------------------------


    POTLOK:  cpu time   18.8381: real time   18.8229
    SETDIJ:  cpu time    0.0080: real time    0.0083
     EDDAV:  cpu time   78.8310: real time   78.7656
       DOS:  cpu time    0.0000: real time    0.0002
    CHARGE:  cpu time    5.8211: real time    5.8171
    MIXING:  cpu time    0.7419: real time    0.7401
    --------------------------------------------
      LOOP:  cpu time  104.2412: real time  104.1578

 eigenvalue-minimisations  :   128
 total energy-change (2. order) : 0.1755349E+00  (-0.4231921E-01)
 number of electron      15.9999991 magnetization 
 augmentation part        0.4359161 magnetization 

 Broyden mixing:
  rms(total) = 0.10905E+00    rms(broyden)= 0.10901E+00
  rms(prec ) = 0.11356E+00
  weight for this iteration     100.00

 eigenvalues of (default mixing * dielectric matrix)
  average eigenvalue GAMMA=   1.4553
  2.1623  1.4532  0.7505

 Free energy of the ion-electron system (eV)
  ---------------------------------------------------
  alpha Z        PSCENC =         0.04144063
  Ewald energy   TEWEN  =       672.78720949
  -Hartree energ DENC   =     -1146.60623530
  -exchange      EXHF   =         0.00000000
  -V(xc)+E(xc)   XCENC  =        54.76945856
  PAW double counting   =      1292.83010488    -1295.67912803
  entropy T*S    EENTRO =         0.00000000
  eigenvalues    EBANDS =      -211.01896097
  atomic energy  EATOM  =       596.16534815
  Solvation  Ediel_sol  =         0.00000000
  ---------------------------------------------------
  free energy    TOTEN  =       -36.71076260 eV

  energy without entropy =      -36.71076260  energy(sigma->0) =      -36.71076260


--------------------------------------------------------------------------------------------------------




----------------------------------------- Iteration    1(   9)  ---------------------------------------


    POTLOK:  cpu time   18.9151: real time   18.8994
    SETDIJ:  cpu time    0.0080: real time    0.0082
     EDDAV:  cpu time   78.7300: real time   78.6651
       DOS:  cpu time    0.0000: real time    0.0002
    CHARGE:  cpu time    5.6621: real time    5.6578
    MIXING:  cpu time    0.8369: real time    0.8359
    --------------------------------------------
      LOOP:  cpu time  104.1522: real time  104.0704

 eigenvalue-minimisations  :   128
 total energy-change (2. order) : 0.2542944E-01  (-0.3404774E-02)
 number of electron      15.9999991 magnetization 
 augmentation part        0.4371114 magnetization 

 Broyden mixing:
  rms(total) = 0.33284E-01    rms(broyden)= 0.33272E-01
  rms(prec ) = 0.39017E-01
  weight for this iteration     100.00

 eigenvalues of (default mixing * dielectric matrix)
  average eigenvalue GAMMA=   1.4497
  2.2882  1.6724  0.8004  1.0380

 Free energy of the ion-electron system (eV)
  ---------------------------------------------------
  alpha Z        PSCENC =         0.04144063
  Ewald energy   TEWEN  =       672.78720949
  -Hartree energ DENC   =     -1148.39603352
  -exchange      EXHF   =         0.00000000
  -V(xc)+E(xc)   XCENC  =        54.87457515
  PAW double counting   =      1367.38524249    -1370.20557416
  entropy T*S    EENTRO =         0.00000000
  eigenvalues    EBANDS =      -209.33754138
  atomic energy  EATOM  =       596.16534815
  Solvation  Ediel_sol  =         0.00000000
  ---------------------------------------------------
  free energy    TOTEN  =       -36.68533316 eV

  energy without entropy =      -36.68533316  energy(sigma->0) =      -36.68533316


--------------------------------------------------------------------------------------------------------




----------------------------------------- Iteration    1(  10)  ---------------------------------------


    POTLOK:  cpu time   18.8861: real time   18.8708
    SETDIJ:  cpu time    0.0080: real time    0.0081
     EDDAV:  cpu time   78.9500: real time   78.8853
       DOS:  cpu time    0.0000: real time    0.0002
    CHARGE:  cpu time    5.8551: real time    5.8507
    MIXING:  cpu time    0.8489: real time    0.8484
    --------------------------------------------
      LOOP:  cpu time  104.5501: real time  104.4670

 eigenvalue-minimisations  :   128
 total energy-change (2. order) : 0.4422862E-02  (-0.4816940E-03)
 number of electron      15.9999991 magnetization 
 augmentation part        0.4380803 magnetization 

 Broyden mixing:
  rms(total) = 0.14571E-01    rms(broyden)= 0.14566E-01
  rms(prec ) = 0.21056E-01
  weight for this iteration     100.00

 eigenvalues of (default mixing * dielectric matrix)
  average eigenvalue GAMMA=   1.4605
  2.1773  2.1773  1.3329  0.8075  0.8075

 Free energy of the ion-electron system (eV)
  ---------------------------------------------------
  alpha Z        PSCENC =         0.04144063
  Ewald energy   TEWEN  =       672.78720949
  -Hartree energ DENC   =     -1149.62657320
  -exchange      EXHF   =         0.00000000
  -V(xc)+E(xc)   XCENC  =        54.91364164
  PAW double counting   =      1382.69394740    -1385.50238051
  entropy T*S    EENTRO =         0.00000000
  eigenvalues    EBANDS =      -208.15354389
  atomic energy  EATOM  =       596.16534815
  Solvation  Ediel_sol  =         0.00000000
  ---------------------------------------------------
  free energy    TOTEN  =       -36.68091029 eV

  energy without entropy =      -36.68091029  energy(sigma->0) =      -36.68091029


--------------------------------------------------------------------------------------------------------




----------------------------------------- Iteration    1(  11)  ---------------------------------------


    POTLOK:  cpu time   18.8761: real time   18.8612
    SETDIJ:  cpu time    0.0090: real time    0.0083
     EDDAV:  cpu time   78.4841: real time   78.4203
       DOS:  cpu time    0.0000: real time    0.0002
    CHARGE:  cpu time    5.7641: real time    5.7599
    MIXING:  cpu time    0.8569: real time    0.8565
    --------------------------------------------
      LOOP:  cpu time  103.9932: real time  103.9100

 eigenvalue-minimisations  :   128
 total energy-change (2. order) :-0.1226701E-02  (-0.1839136E-03)
 number of electron      15.9999991 magnetization 
 augmentation part        0.4376852 magnetization 

 Broyden mixing:
  rms(total) = 0.95311E-02    rms(broyden)= 0.95299E-02
  rms(prec ) = 0.14690E-01
  weight for this iteration     100.00

 eigenvalues of (default mixing * dielectric matrix)
  average eigenvalue GAMMA=   1.7270
  3.2077  2.4792  1.4920  1.4920  0.8456  0.8456

 Free energy of the ion-electron system (eV)
  ---------------------------------------------------
  alpha Z        PSCENC =         0.04144063
  Ewald energy   TEWEN  =       672.78720949
  -Hartree energ DENC   =     -1150.75751697
  -exchange      EXHF   =         0.00000000
  -V(xc)+E(xc)   XCENC  =        54.93947797
  PAW double counting   =      1379.69348365    -1382.49690750
  entropy T*S    EENTRO =         0.00000000
  eigenvalues    EBANDS =      -207.05467242
  atomic energy  EATOM  =       596.16534815
  Solvation  Ediel_sol  =         0.00000000
  ---------------------------------------------------
  free energy    TOTEN  =       -36.68213699 eV

  energy without entropy =      -36.68213699  energy(sigma->0) =      -36.68213699


--------------------------------------------------------------------------------------------------------




----------------------------------------- Iteration    1(  12)  ---------------------------------------


    POTLOK:  cpu time   18.8731: real time   18.8582
    SETDIJ:  cpu time    0.0080: real time    0.0083
     EDDAV:  cpu time   71.2642: real time   71.2050
       DOS:  cpu time    0.0000: real time    0.0002
    CHARGE:  cpu time    5.6051: real time    5.6000
    MIXING:  cpu time    0.9069: real time    0.9063
    --------------------------------------------
      LOOP:  cpu time   96.6583: real time   96.5820

 eigenvalue-minimisations  :   112
 total energy-change (2. order) :-0.6821901E-02  (-0.4930333E-03)
 number of electron      15.9999991 magnetization 
 augmentation part        0.4370197 magnetization 

 Broyden mixing:
  rms(total) = 0.49446E-02    rms(broyden)= 0.49372E-02
  rms(prec ) = 0.71997E-02
  weight for this iteration     100.00

 eigenvalues of (default mixing * dielectric matrix)
  average eigenvalue GAMMA=   1.7276
  3.7796  2.2589  1.8474  1.4116  0.8099  0.9086  1.0770

 Free energy of the ion-electron system (eV)
  ---------------------------------------------------
  alpha Z        PSCENC =         0.04144063
  Ewald energy   TEWEN  =       672.78720949
  -Hartree energ DENC   =     -1152.55858985
  -exchange      EXHF   =         0.00000000
  -V(xc)+E(xc)   XCENC  =        54.97662623
  PAW double counting   =      1372.97904312    -1375.77781379
  entropy T*S    EENTRO =         0.00000000
  eigenvalues    EBANDS =      -205.30222288
  atomic energy  EATOM  =       596.16534815
  Solvation  Ediel_sol  =         0.00000000
  ---------------------------------------------------
  free energy    TOTEN  =       -36.68895890 eV

  energy without entropy =      -36.68895890  energy(sigma->0) =      -36.68895890


--------------------------------------------------------------------------------------------------------




----------------------------------------- Iteration    1(  13)  ---------------------------------------


    POTLOK:  cpu time   18.9311: real time   18.9161
    SETDIJ:  cpu time    0.0080: real time    0.0083
     EDDAV:  cpu time   94.9166: real time   94.8386
       DOS:  cpu time    0.0000: real time    0.0002
    CHARGE:  cpu time    5.6481: real time    5.6437
    MIXING:  cpu time    0.9929: real time    0.9920
    --------------------------------------------
      LOOP:  cpu time  120.4977: real time  120.4030

 eigenvalue-minimisations  :   160
 total energy-change (2. order) :-0.4356300E-02  (-0.1214002E-03)
 number of electron      15.9999991 magnetization 
 augmentation part        0.4368541 magnetization 

 Broyden mixing:
  rms(total) = 0.35440E-02    rms(broyden)= 0.35412E-02
  rms(prec ) = 0.51944E-02
  weight for this iteration     100.00

 eigenvalues of (default mixing * dielectric matrix)
  average eigenvalue GAMMA=   1.7522
  4.3513  2.3759  1.5866  1.5866  1.5564  0.8734  0.8734  0.8140

 Free energy of the ion-electron system (eV)
  ---------------------------------------------------
  alpha Z        PSCENC =         0.04144063
  Ewald energy   TEWEN  =       672.78720949
  -Hartree energ DENC   =     -1152.96641503
  -exchange      EXHF   =         0.00000000
  -V(xc)+E(xc)   XCENC  =        54.98125818
  PAW double counting   =      1374.00507215    -1376.80463522
  entropy T*S    EENTRO =         0.00000000
  eigenvalues    EBANDS =      -204.90259354
  atomic energy  EATOM  =       596.16534815
  Solvation  Ediel_sol  =         0.00000000
  ---------------------------------------------------
  free energy    TOTEN  =       -36.69331520 eV

  energy without entropy =      -36.69331520  energy(sigma->0) =      -36.69331520


--------------------------------------------------------------------------------------------------------




----------------------------------------- Iteration    1(  14)  ---------------------------------------


    POTLOK:  cpu time   18.8161: real time   18.8007
    SETDIJ:  cpu time    0.0080: real time    0.0081
     EDDAV:  cpu time   79.3249: real time   79.2595
       DOS:  cpu time    0.0000: real time    0.0002
    CHARGE:  cpu time    5.6871: real time    5.6833
    MIXING:  cpu time    0.9988: real time    0.9983
    --------------------------------------------
      LOOP:  cpu time  104.8371: real time  104.7537

 eigenvalue-minimisations  :   128
 total energy-change (2. order) :-0.4263861E-02  (-0.5585096E-04)
 number of electron      15.9999991 magnetization 
 augmentation part        0.4369797 magnetization 

 Broyden mixing:
  rms(total) = 0.23979E-02    rms(broyden)= 0.23974E-02
  rms(prec ) = 0.34060E-02
  weight for this iteration     100.00

 eigenvalues of (default mixing * dielectric matrix)
  average eigenvalue GAMMA=   1.8801
  5.2236  2.8436  2.3297  1.5121  1.4367  0.8414  0.8414  0.9463  0.9463

 Free energy of the ion-electron system (eV)
  ---------------------------------------------------
  alpha Z        PSCENC =         0.04144063
  Ewald energy   TEWEN  =       672.78720949
  -Hartree energ DENC   =     -1153.12630954
  -exchange      EXHF   =         0.00000000
  -V(xc)+E(xc)   XCENC  =        54.97286314
  PAW double counting   =      1372.11940331    -1374.91867461
  entropy T*S    EENTRO =         0.00000000
  eigenvalues    EBANDS =      -204.73885962
  atomic energy  EATOM  =       596.16534815
  Solvation  Ediel_sol  =         0.00000000
  ---------------------------------------------------
  free energy    TOTEN  =       -36.69757906 eV

  energy without entropy =      -36.69757906  energy(sigma->0) =      -36.69757906


--------------------------------------------------------------------------------------------------------




----------------------------------------- Iteration    1(  15)  ---------------------------------------


    POTLOK:  cpu time   19.2231: real time   19.2081
    SETDIJ:  cpu time    0.0090: real time    0.0081
     EDDAV:  cpu time   79.5989: real time   79.5341
       DOS:  cpu time    0.0000: real time    0.0002
    CHARGE:  cpu time    5.7551: real time    5.7502
    MIXING:  cpu time    1.1408: real time    1.1406
    --------------------------------------------
      LOOP:  cpu time  105.7279: real time  105.6454

 eigenvalue-minimisations  :   128
 total energy-change (2. order) :-0.3008993E-02  (-0.2894304E-04)
 number of electron      15.9999991 magnetization 
 augmentation part        0.4369141 magnetization 

 Broyden mixing:
  rms(total) = 0.14702E-02    rms(broyden)= 0.14700E-02
  rms(prec ) = 0.20601E-02
  weight for this iteration     100.00

 eigenvalues of (default mixing * dielectric matrix)
  average eigenvalue GAMMA=   1.9978
  6.1844  3.1717  2.2954  1.6306  1.5380  1.5380  0.8314  0.8628  0.9626  0.9626

 Free energy of the ion-electron system (eV)
  ---------------------------------------------------
  alpha Z        PSCENC =         0.04144063
  Ewald energy   TEWEN  =       672.78720949
  -Hartree energ DENC   =     -1153.23289947
  -exchange      EXHF   =         0.00000000
  -V(xc)+E(xc)   XCENC  =        54.96867090
  PAW double counting   =      1372.02076180    -1374.82071149
  entropy T*S    EENTRO =         0.00000000
  eigenvalues    EBANDS =      -204.63040806
  atomic energy  EATOM  =       596.16534815
  Solvation  Ediel_sol  =         0.00000000
  ---------------------------------------------------
  free energy    TOTEN  =       -36.70058805 eV

  energy without entropy =      -36.70058805  energy(sigma->0) =      -36.70058805


--------------------------------------------------------------------------------------------------------




----------------------------------------- Iteration    1(  16)  ---------------------------------------


    POTLOK:  cpu time   18.8411: real time   18.8269
    SETDIJ:  cpu time    0.0090: real time    0.0083
     EDDAV:  cpu time   79.4759: real time   79.4108
       DOS:  cpu time    0.0000: real time    0.0002
    CHARGE:  cpu time    5.7731: real time    5.7682
    MIXING:  cpu time    1.1948: real time    1.1939
    --------------------------------------------
      LOOP:  cpu time  105.2960: real time  106.5029

 eigenvalue-minimisations  :   128
 total energy-change (2. order) :-0.2240926E-02  (-0.2590797E-04)
 number of electron      15.9999991 magnetization 
 augmentation part        0.4367992 magnetization 

 Broyden mixing:
  rms(total) = 0.10483E-02    rms(broyden)= 0.10472E-02
  rms(prec ) = 0.12996E-02
  weight for this iteration     100.00

 eigenvalues of (default mixing * dielectric matrix)
  average eigenvalue GAMMA=   2.1200
  7.2187  3.6969  2.4493  2.2554  1.4762  1.3091  1.3091  0.8258  0.8655  0.9571
  0.9571

 Free energy of the ion-electron system (eV)
  ---------------------------------------------------
  alpha Z        PSCENC =         0.04144063
  Ewald energy   TEWEN  =       672.78720949
  -Hartree energ DENC   =     -1153.29313722
  -exchange      EXHF   =         0.00000000
  -V(xc)+E(xc)   XCENC  =        54.96579605
  PAW double counting   =      1372.27741598    -1375.07727047
  entropy T*S    EENTRO =         0.00000000
  eigenvalues    EBANDS =      -204.56963159
  atomic energy  EATOM  =       596.16534815
  Solvation  Ediel_sol  =         0.00000000
  ---------------------------------------------------
  free energy    TOTEN  =       -36.70282898 eV

  energy without entropy =      -36.70282898  energy(sigma->0) =      -36.70282898


--------------------------------------------------------------------------------------------------------




----------------------------------------- Iteration    1(  17)  ---------------------------------------


    POTLOK:  cpu time   19.0831: real time   19.0685
    SETDIJ:  cpu time    0.0080: real time    0.0081
     EDDAV:  cpu time   64.4032: real time   64.3494
       DOS:  cpu time    0.0000: real time    0.0002
    CHARGE:  cpu time    5.7921: real time    5.7879
    MIXING:  cpu time    1.2558: real time    1.2543
    --------------------------------------------
      LOOP:  cpu time   90.5432: real time   90.4717

 eigenvalue-minimisations  :    96
 total energy-change (2. order) :-0.9232219E-03  (-0.4488421E-05)
 number of electron      15.9999991 magnetization 
 augmentation part        0.4368468 magnetization 

 Broyden mixing:
  rms(total) = 0.39662E-03    rms(broyden)= 0.39653E-03
  rms(prec ) = 0.56556E-03
  weight for this iteration     100.00

 eigenvalues of (default mixing * dielectric matrix)
  average eigenvalue GAMMA=   2.1650
  7.7972  4.0652  2.5692  1.9998  1.9998  1.3644  1.3644  0.8228  0.8787  0.9914
  1.0633  1.0633

 Free energy of the ion-electron system (eV)
  ---------------------------------------------------
  alpha Z        PSCENC =         0.04144063
  Ewald energy   TEWEN  =       672.78720949
  -Hartree energ DENC   =     -1153.29286191
  -exchange      EXHF   =         0.00000000
  -V(xc)+E(xc)   XCENC  =        54.96329051
  PAW double counting   =      1372.73500328    -1375.53454284
  entropy T*S    EENTRO =         0.00000000
  eigenvalues    EBANDS =      -204.56863950
  atomic energy  EATOM  =       596.16534815
  Solvation  Ediel_sol  =         0.00000000
  ---------------------------------------------------
  free energy    TOTEN  =       -36.70375220 eV

  energy without entropy =      -36.70375220  energy(sigma->0) =      -36.70375220


--------------------------------------------------------------------------------------------------------




----------------------------------------- Iteration    1(  18)  ---------------------------------------


    POTLOK:  cpu time   19.0451: real time   19.0297
    SETDIJ:  cpu time    0.0080: real time    0.0081
     EDDAV:  cpu time   60.4338: real time   60.3845
       DOS:  cpu time    0.0000: real time    0.0002
    CHARGE:  cpu time    5.6701: real time    5.6667
    MIXING:  cpu time    1.3328: real time    1.3302
    --------------------------------------------
      LOOP:  cpu time   86.4919: real time   86.4229

 eigenvalue-minimisations  :    88
 total energy-change (2. order) :-0.4613558E-03  (-0.2680515E-05)
 number of electron      15.9999991 magnetization 
 augmentation part        0.4368348 magnetization 

 Broyden mixing:
  rms(total) = 0.29274E-03    rms(broyden)= 0.29267E-03
  rms(prec ) = 0.37871E-03
  weight for this iteration     100.00

 eigenvalues of (default mixing * dielectric matrix)
  average eigenvalue GAMMA=   2.2662
  8.3068  4.8061  2.9109  2.5771  2.0679  1.5484  1.3125  1.3125  0.8219  0.8921
  0.9291  0.9873  0.9873

 Free energy of the ion-electron system (eV)
  ---------------------------------------------------
  alpha Z        PSCENC =         0.04144063
  Ewald energy   TEWEN  =       672.78720949
  -Hartree energ DENC   =     -1153.29561451
  -exchange      EXHF   =         0.00000000
  -V(xc)+E(xc)   XCENC  =        54.96281615
  PAW double counting   =      1372.68477223    -1375.48441259
  entropy T*S    EENTRO =         0.00000000
  eigenvalues    EBANDS =      -204.56577310
  atomic energy  EATOM  =       596.16534815
  Solvation  Ediel_sol  =         0.00000000
  ---------------------------------------------------
  free energy    TOTEN  =       -36.70421355 eV

  energy without entropy =      -36.70421355  energy(sigma->0) =      -36.70421355


--------------------------------------------------------------------------------------------------------




----------------------------------------- Iteration    1(  19)  ---------------------------------------


    POTLOK:  cpu time   19.5510: real time   19.5360
    SETDIJ:  cpu time    0.0080: real time    0.0082
     EDDAV:  cpu time   56.5614: real time   56.5145
       DOS:  cpu time    0.0000: real time    0.0002
    CHARGE:  cpu time    5.7291: real time    5.7248
    MIXING:  cpu time    1.4398: real time    1.4378
    --------------------------------------------
      LOOP:  cpu time   83.2903: real time   83.5752

 eigenvalue-minimisations  :    80
 total energy-change (2. order) :-0.2613431E-03  (-0.1253457E-05)
 number of electron      15.9999991 magnetization 
 augmentation part        0.4368280 magnetization 

 Broyden mixing:
  rms(total) = 0.15933E-03    rms(broyden)= 0.15918E-03
  rms(prec ) = 0.19952E-03
  weight for this iteration     100.00

 eigenvalues of (default mixing * dielectric matrix)
  average eigenvalue GAMMA=   2.2968
  8.5706  5.1475  3.2446  2.3219  2.3219  1.9371  1.4354  1.2757  1.2757  0.9942
  0.9942  0.8231  0.8809  0.9324

 Free energy of the ion-electron system (eV)
  ---------------------------------------------------
  alpha Z        PSCENC =         0.04144063
  Ewald energy   TEWEN  =       672.78720949
  -Hartree energ DENC   =     -1153.29029790
  -exchange      EXHF   =         0.00000000
  -V(xc)+E(xc)   XCENC  =        54.96223737
  PAW double counting   =      1372.45789026    -1375.25748316
  entropy T*S    EENTRO =         0.00000000
  eigenvalues    EBANDS =      -204.57081974
  atomic energy  EATOM  =       596.16534815
  Solvation  Ediel_sol  =         0.00000000
  ---------------------------------------------------
  free energy    TOTEN  =       -36.70447490 eV

  energy without entropy =      -36.70447490  energy(sigma->0) =      -36.70447490


--------------------------------------------------------------------------------------------------------




----------------------------------------- Iteration    1(  20)  ---------------------------------------


    POTLOK:  cpu time   19.1201: real time   19.1052
    SETDIJ:  cpu time    0.0080: real time    0.0082
     EDDAV:  cpu time   55.8605: real time   55.8154
       DOS:  cpu time    0.0000: real time    0.0002
    CHARGE:  cpu time    5.4842: real time    5.4800
    MIXING:  cpu time    1.4478: real time    1.4470
    --------------------------------------------
      LOOP:  cpu time   81.9235: real time   81.8599

 eigenvalue-minimisations  :    80
 total energy-change (2. order) :-0.1090266E-03  (-0.3390823E-06)
 number of electron      15.9999991 magnetization 
 augmentation part        0.4368292 magnetization 

 Broyden mixing:
  rms(total) = 0.15892E-03    rms(broyden)= 0.15890E-03
  rms(prec ) = 0.17572E-03
  weight for this iteration     100.00

 eigenvalues of (default mixing * dielectric matrix)
  average eigenvalue GAMMA=   2.3294
  8.7371  5.7032  3.4658  2.5801  2.5801  2.0581  1.5922  1.3113  1.3113  1.0108
  1.0108  0.8234  0.8738  0.9415  0.9415

 Free energy of the ion-electron system (eV)
  ---------------------------------------------------
  alpha Z        PSCENC =         0.04144063
  Ewald energy   TEWEN  =       672.78720949
  -Hartree energ DENC   =     -1153.29442267
  -exchange      EXHF   =         0.00000000
  -V(xc)+E(xc)   XCENC  =        54.96222340
  PAW double counting   =      1372.50380314    -1375.30339701
  entropy T*S    EENTRO =         0.00000000
  eigenvalues    EBANDS =      -204.56678905
  atomic energy  EATOM  =       596.16534815
  Solvation  Ediel_sol  =         0.00000000
  ---------------------------------------------------
  free energy    TOTEN  =       -36.70458392 eV

  energy without entropy =      -36.70458392  energy(sigma->0) =      -36.70458392


--------------------------------------------------------------------------------------------------------




----------------------------------------- Iteration    1(  21)  ---------------------------------------


    POTLOK:  cpu time   18.6232: real time   18.6085
    SETDIJ:  cpu time    0.0090: real time    0.0085
     EDDAV:  cpu time   55.5236: real time   55.4788
       DOS:  cpu time    0.0000: real time    0.0002
    --------------------------------------------
      LOOP:  cpu time   74.1577: real time   74.0993

 eigenvalue-minimisations  :    80
 total energy-change (2. order) :-0.4376313E-04  (-0.1281329E-06)
 number of electron      15.9999991 magnetization 
 augmentation part        0.4368292 magnetization 

 Free energy of the ion-electron system (eV)
  ---------------------------------------------------
  alpha Z        PSCENC =         0.04144063
  Ewald energy   TEWEN  =       672.78720949
  -Hartree energ DENC   =     -1153.29489328
  -exchange      EXHF   =         0.00000000
  -V(xc)+E(xc)   XCENC  =        54.96210826
  PAW double counting   =      1372.50194067    -1375.30156828
  entropy T*S    EENTRO =         0.00000000
  eigenvalues    EBANDS =      -204.56621331
  atomic energy  EATOM  =       596.16534815
  Solvation  Ediel_sol  =         0.00000000
  ---------------------------------------------------
  free energy    TOTEN  =       -36.70462769 eV

  energy without entropy =      -36.70462769  energy(sigma->0) =      -36.70462769


--------------------------------------------------------------------------------------------------------




 average (electrostatic) potential at core
  the test charge radii are     0.5201  0.6991  0.7089
  (the norm of the test charge is              1.0000)
       1 -43.1679       2 -43.1665       3 -43.1670       4 -60.0799       5 -60.0737
       6 -73.2271
 
 
 
 E-fermi :  -7.1118     XC(G=0):  -0.0876     alpha+bet : -0.0137


 k-point     1 :       0.2500    0.2500    0.2500
  band No.  band energies     occupation 
      1     -22.5226      2.00000
      2     -19.3740      2.00000
      3     -12.8296      2.00000
      4     -11.4689      2.00000
      5     -11.4649      2.00000
      6      -8.4953      2.00000
      7      -8.0644      2.00000
      8      -8.0634      2.00000
      9      -0.8370      0.00000
     10      -0.4721      0.00000
     11      -0.4720      0.00000
     12      -0.0092      0.00000

 k-point     2 :      -0.2500    0.2500    0.2500
  band No.  band energies     occupation 
      1     -22.5226      2.00000
      2     -19.3740      2.00000
      3     -12.8296      2.00000
      4     -11.4689      2.00000
      5     -11.4649      2.00000
      6      -8.4953      2.00000
      7      -8.0644      2.00000
      8      -8.0634      2.00000
      9      -0.8370      0.00000
     10      -0.4721      0.00000
     11      -0.4720      0.00000
     12      -0.0092      0.00000

 k-point     3 :       0.2500   -0.2500    0.2500
  band No.  band energies     occupation 
      1     -22.5226      2.00000
      2     -19.3740      2.00000
      3     -12.8296      2.00000
      4     -11.4689      2.00000
      5     -11.4649      2.00000
      6      -8.4953      2.00000
      7      -8.0644      2.00000
      8      -8.0634      2.00000
      9      -0.8370      0.00000
     10      -0.4721      0.00000
     11      -0.4720      0.00000
     12      -0.0093      0.00000

 k-point     4 :      -0.2500   -0.2500    0.2500
  band No.  band energies     occupation 
      1     -22.5226      2.00000
      2     -19.3740      2.00000
      3     -12.8296      2.00000
      4     -11.4689      2.00000
      5     -11.4649      2.00000
      6      -8.4953      2.00000
      7      -8.0644      2.00000
      8      -8.0634      2.00000
      9      -0.8370      0.00000
     10      -0.4721      0.00000
     11      -0.4720      0.00000
     12      -0.0093      0.00000


--------------------------------------------------------------------------------------------------------


 soft charge-density along one line, spin component           1
         0         1         2         3         4         5         6         7         8         9
 total charge-density along one line
 
 pseudopotential strength for first ion, spin component:           1
 -2.364  -4.078  -0.002   0.000  -0.001
 -4.078  -6.948  -0.005   0.000  -0.002
 -0.002  -0.005  -0.330   0.000   0.002
  0.000   0.000   0.000  -0.334   0.000
 -0.001  -0.002   0.002   0.000  -0.333
 total augmentation occupancy for first ion, spin component:           1
  3.479  -0.626   0.401  -0.029   0.171
 -0.626   0.129  -0.074   0.005  -0.031
  0.401  -0.074   0.048  -0.003   0.017
 -0.029   0.005  -0.003   0.009  -0.001
  0.171  -0.031   0.017  -0.001   0.015


------------------------ aborting loop because EDIFF is reached ----------------------------------------


    CHARGE:  cpu time    5.5442: real time    5.5401
    FORLOC:  cpu time    2.7796: real time    2.7772
    FORNL :  cpu time   18.2692: real time   18.2540
    STRESS:  cpu time   57.1623: real time   57.1152
    FORCOR:  cpu time   20.5389: real time   20.5218
    FORHAR:  cpu time    7.2399: real time    7.2335
    MIXING:  cpu time    1.3758: real time    1.3757
    OFIELD:  cpu time    0.0010: real time    0.0000

  FORCE on cell =-STRESS in cart. coord.  units (eV):
  Direction    XX          YY          ZZ          XY          YZ          ZX
  --------------------------------------------------------------------------------------
  Alpha Z     0.04144     0.04144     0.04144
  Ewald     598.88981    37.17664    36.72053   -21.29083    -0.45419    13.51837
  Hartree   586.60247   283.47173   283.22153   -11.46622    -0.26218     7.32402
  E(xc)     -58.95836   -60.31587   -60.31685    -0.05147    -0.00094     0.03240
  Local   -1328.05997  -493.46378  -492.77996    31.61223     0.70062   -20.13073
  n-local   -28.21211   -24.79152   -24.78991     0.12789     0.00243    -0.07891
  augment     0.41191     0.39331     0.39372    -0.00041    -0.00040     0.00051
  Kinetic   228.29830   256.53273   256.55479     1.06657     0.00816    -0.66624
  Fock        0.00000     0.00000     0.00000     0.00000     0.00000     0.00000
  -------------------------------------------------------------------------------------
  Total      -0.98650    -0.95531    -0.95470    -0.00224    -0.00650    -0.00058
  in kB      -0.05854    -0.05669    -0.05665    -0.00013    -0.00039    -0.00003
  external pressure =       -0.06 kB  Pullay stress =        0.00 kB


 VOLUME and BASIS-vectors are now :
 -----------------------------------------------------------------------------
  energy-cutoff  :      400.00
  volume of cell :    27000.00
      direct lattice vectors                 reciprocal lattice vectors
    30.000000000  0.000000000  0.000000000     0.033333333  0.000000000  0.000000000
     0.000000000 30.000000000  0.000000000     0.000000000  0.033333333  0.000000000
     0.000000000  0.000000000 30.000000000     0.000000000  0.000000000  0.033333333

  length of vectors
    30.000000000 30.000000000 30.000000000     0.033333333  0.033333333  0.033333333


 FORCES acting on ions
    electron-ion (+dipol)            ewald-force                    non-local-force                 convergence-correction
 -----------------------------------------------------------------------------------------------
   0.348E+02 0.544E+02 -.370E+01   -.370E+02 -.596E+02 0.408E+01   0.219E+01 0.513E+01 -.370E+00   0.804E-04 0.282E-04 0.249E-05
   0.304E+02 -.251E+02 0.514E+02   -.321E+02 0.274E+02 -.562E+02   0.177E+01 -.230E+01 0.478E+01   0.738E-04 -.194E-04 0.291E-04
   0.325E+02 -.331E+02 -.451E+02   -.345E+02 0.361E+02 0.494E+02   0.197E+01 -.306E+01 -.425E+01   0.766E-04 -.262E-04 -.206E-04
   0.966E+02 -.369E+01 0.231E+01   -.101E+03 0.386E+01 -.241E+01   0.449E+01 -.173E+00 0.104E+00   0.556E-03 -.693E-04 0.429E-04
   0.664E+02 -.247E+01 0.131E+01   -.685E+02 0.254E+01 -.136E+01   0.212E+01 -.776E-01 0.386E-01   -.889E-03 0.169E-04 -.129E-04
   -.233E+03 0.883E+01 -.551E+01   0.273E+03 -.104E+02 0.646E+01   -.405E+02 0.154E+01 -.947E+00   -.451E-03 0.101E-04 -.100E-04
 -----------------------------------------------------------------------------------------------
   0.280E+02 -.105E+01 0.637E+00   0.000E+00 0.178E-14 0.266E-14   -.280E+02 0.106E+01 -.645E+00   -.553E-03 -.597E-04 0.309E-04
 
 
 POSITION                                       TOTAL-FORCE (eV/Angst)
 -----------------------------------------------------------------------------------
     14.08932     14.00634     15.06198         0.005859      0.005616      0.005766
     14.17198     15.47266     14.04649         0.002298     -0.001912      0.009679
     14.13200     15.62067     15.82635         0.002721     -0.008638     -0.006476
     14.51209     15.01867     14.98841         0.005291     -0.001018     -0.002038
     15.96455     14.96313     15.02470         0.001083     -0.001024     -0.004643
     17.13022     14.91897     15.05197        -0.017252      0.006976     -0.002288
 -----------------------------------------------------------------------------------
    total drift:                                0.001903      0.009053     -0.007817


--------------------------------------------------------------------------------------------------------



  FREE ENERGIE OF THE ION-ELECTRON SYSTEM (eV)
  ---------------------------------------------------
  free  energy   TOTEN  =       -36.70462769 eV

  energy  without entropy=      -36.70462769  energy(sigma->0) =      -36.70462769
 


--------------------------------------------------------------------------------------------------------


    POTLOK:  cpu time   17.6793: real time   17.6652


--------------------------------------------------------------------------------------------------------


 NEB: the previous image is higher in energy: T
 NEB: the next image is higher in energy    : F
 NEB: only prev energy greater

 NEB: Tangent
 ----------------------------------------------
     -0.06186      0.02291      0.62033
     -0.05202     -0.44559     -0.22224
      0.10639      0.51646     -0.19876
     -0.00159      0.01820      0.03988
      0.00199     -0.03451     -0.07100
      0.00611     -0.07881     -0.16806

 NEB: forces: par spring, perp REAL, dneb     0.025341    0.027079    0.000000
 NEB: distance to prev, next image, angle between     0.366805    0.361737  154.656491
 NEB: projections on to tangent (spring, REAL)    -0.025341   -0.000972

 stress matrix after NEB project (eV)
     -0.98650     -0.00224     -0.00058
     -0.00224     -0.95531     -0.00650
     -0.00058     -0.00650     -0.95470
  FORCES: max atom, RMS     0.021287    0.015140
  FORCE total and by dimension    0.037086    0.021224
  Stress total and by dimension    1.672531    0.986504
 
 OPT: Flag T
 OPT: FIRE Step
 OPT: FIRE, TIMESTEP      0.10000
 OPT: FIRE, alpha         0.10000


--------------------------------------------------------------------------------------------------------


    WAVPRE:  cpu time    8.8097: real time    8.8018
 FEWALD executed in parallel
    FEWALD:  cpu time    0.0000: real time    0.0003
    ORTHCH:  cpu time    6.8790: real time    6.8736
     LOOP+:  cpu time 2408.3989: real time 2408.1728


----------------------------------------- Iteration    2(   1)  ---------------------------------------


    POTLOK:  cpu time   18.9381: real time   18.9237
    SETDIJ:  cpu time    0.0090: real time    0.0082
     EDDAV:  cpu time   75.1126: real time   75.0515
       DOS:  cpu time    0.0000: real time    0.0002
    CHARGE:  cpu time    5.9331: real time    5.9280
    MIXING:  cpu time    0.6389: real time    0.6395
    --------------------------------------------
      LOOP:  cpu time  100.6337: real time  100.5536

 eigenvalue-minimisations  :   112
 total energy-change (2. order) :-0.7270303E-04  (-0.2065668E-04)
 number of electron      15.9999991 magnetization 
 augmentation part        0.4369355 magnetization 

 Broyden mixing:
  rms(total) = 0.47798E-03    rms(broyden)= 0.47518E-03
  rms(prec ) = 0.48715E-03
  weight for this iteration     100.00

 Free energy of the ion-electron system (eV)
  ---------------------------------------------------
  alpha Z        PSCENC =         0.04144063
  Ewald energy   TEWEN  =       672.86341514
  -Hartree energ DENC   =     -1153.34581684
  -exchange      EXHF   =         0.00000000
  -V(xc)+E(xc)   XCENC  =        54.96337371
  PAW double counting   =      1372.48159638    -1375.28122101
  entropy T*S    EENTRO =         0.00000000
  eigenvalues    EBANDS =      -204.59279279
  atomic energy  EATOM  =       596.16534815
  Solvation  Ediel_sol  =         0.00000000
  ---------------------------------------------------
  free energy    TOTEN  =       -36.70465663 eV

  energy without entropy =      -36.70465663  energy(sigma->0) =      -36.70465663


--------------------------------------------------------------------------------------------------------




----------------------------------------- Iteration    2(   2)  ---------------------------------------


    POTLOK:  cpu time   18.8191: real time   18.8045
    SETDIJ:  cpu time    0.0080: real time    0.0081
     EDDAV:  cpu time   60.8268: real time   60.7768
       DOS:  cpu time    0.0000: real time    0.0002
    CHARGE:  cpu time    5.6331: real time    5.6288
    MIXING:  cpu time    0.6929: real time    0.6926
    --------------------------------------------
      LOOP:  cpu time   85.9819: real time   85.9148

 eigenvalue-minimisations  :    88
 total energy-change (2. order) :-0.5536673E-05  (-0.2872096E-06)
 number of electron      15.9999991 magnetization 
 augmentation part        0.4369403 magnetization 

 Broyden mixing:
  rms(total) = 0.27715E-03    rms(broyden)= 0.27697E-03
  rms(prec ) = 0.28427E-03
  weight for this iteration     100.00

 eigenvalues of (default mixing * dielectric matrix)
  average eigenvalue GAMMA=   1.4784
  1.4784

 Free energy of the ion-electron system (eV)
  ---------------------------------------------------
  alpha Z        PSCENC =         0.04144063
  Ewald energy   TEWEN  =       672.86341514
  -Hartree energ DENC   =     -1153.35576087
  -exchange      EXHF   =         0.00000000
  -V(xc)+E(xc)   XCENC  =        54.96390409
  PAW double counting   =      1372.62901012    -1375.42877585
  entropy T*S    EENTRO =         0.00000000
  eigenvalues    EBANDS =      -204.58324356
  atomic energy  EATOM  =       596.16534815
  Solvation  Ediel_sol  =         0.00000000
  ---------------------------------------------------
  free energy    TOTEN  =       -36.70466216 eV

  energy without entropy =      -36.70466216  energy(sigma->0) =      -36.70466216


--------------------------------------------------------------------------------------------------------




----------------------------------------- Iteration    2(   3)  ---------------------------------------


    POTLOK:  cpu time   19.5680: real time   19.5519
[...]
  Solvation  Ediel_sol  =         0.00000000
  ---------------------------------------------------
  free energy    TOTEN  =       -36.70493373 eV

  energy without entropy =      -36.70493373  energy(sigma->0) =      -36.70493373


--------------------------------------------------------------------------------------------------------




----------------------------------------- Iteration  135(   2)  ---------------------------------------


    POTLOK:  cpu time   23.6694: real time   23.6509
    SETDIJ:  cpu time    0.0090: real time    0.0084
     EDDAV:  cpu time   44.1373: real time   44.1013
       DOS:  cpu time    0.0000: real time    0.0002
    CHARGE:  cpu time    6.8600: real time    6.8554
    MIXING:  cpu time    0.6909: real time    0.6896
    --------------------------------------------
      LOOP:  cpu time   75.3685: real time   75.3096

 eigenvalue-minimisations  :    48
 total energy-change (2. order) :-0.2433167E-06  (-0.2719117E-06)
 number of electron      15.9999990 magnetization 
 augmentation part        0.4370183 magnetization 

 Broyden mixing:
  rms(total) = 0.90768E-04    rms(broyden)= 0.90671E-04
  rms(prec ) = 0.92036E-04
  weight for this iteration     100.00

 eigenvalues of (default mixing * dielectric matrix)
  average eigenvalue GAMMA=   1.2847
  1.2847

 Free energy of the ion-electron system (eV)
  ---------------------------------------------------
  alpha Z        PSCENC =         0.04144063
  Ewald energy   TEWEN  =       672.99968868
  -Hartree energ DENC   =     -1153.49270414
  -exchange      EXHF   =         0.00000000
  -V(xc)+E(xc)   XCENC  =        54.96766786
  PAW double counting   =      1373.54051630    -1376.34072364
  entropy T*S    EENTRO =         0.00000000
  eigenvalues    EBANDS =      -204.58616780
  atomic energy  EATOM  =       596.16534815
  Solvation  Ediel_sol  =         0.00000000
  ---------------------------------------------------
  free energy    TOTEN  =       -36.70493397 eV

  energy without entropy =      -36.70493397  energy(sigma->0) =      -36.70493397


--------------------------------------------------------------------------------------------------------




----------------------------------------- Iteration  135(   3)  ---------------------------------------


    POTLOK:  cpu time   24.7082: real time   24.6891
    SETDIJ:  cpu time    0.0080: real time    0.0082
     EDDAV:  cpu time   44.1583: real time   44.1212
       DOS:  cpu time    0.0000: real time    0.0002
    CHARGE:  cpu time    6.7690: real time    6.7636
    MIXING:  cpu time    0.7669: real time    0.7666
    --------------------------------------------
      LOOP:  cpu time   76.4124: real time   76.3528

 eigenvalue-minimisations  :    48
 total energy-change (2. order) :-0.3673722E-07  (-0.3119530E-07)
 number of electron      15.9999990 magnetization 
 augmentation part        0.4370184 magnetization 

 Broyden mixing:
  rms(total) = 0.47440E-04    rms(broyden)= 0.47421E-04
  rms(prec ) = 0.48548E-04
  weight for this iteration     100.00

 eigenvalues of (default mixing * dielectric matrix)
  average eigenvalue GAMMA=   1.6918
  0.9608  2.4228

 Free energy of the ion-electron system (eV)
  ---------------------------------------------------
  alpha Z        PSCENC =         0.04144063
  Ewald energy   TEWEN  =       672.99968868
  -Hartree energ DENC   =     -1153.49270183
  -exchange      EXHF   =         0.00000000
  -V(xc)+E(xc)   XCENC  =        54.96766768
  PAW double counting   =      1373.54007477    -1376.34028173
  entropy T*S    EENTRO =         0.00000000
  eigenvalues    EBANDS =      -204.58617035
  atomic energy  EATOM  =       596.16534815
  Solvation  Ediel_sol  =         0.00000000
  ---------------------------------------------------
  free energy    TOTEN  =       -36.70493401 eV

  energy without entropy =      -36.70493401  energy(sigma->0) =      -36.70493401


--------------------------------------------------------------------------------------------------------




----------------------------------------- Iteration  135(   4)  ---------------------------------------


    POTLOK:  cpu time   24.6263: real time   24.6056
    SETDIJ:  cpu time    0.0080: real time    0.0086
     EDDAV:  cpu time   42.5735: real time   42.5390
       DOS:  cpu time    0.0000: real time    0.0002
    CHARGE:  cpu time    6.2880: real time    6.2831
    MIXING:  cpu time    0.8059: real time    0.8060
    --------------------------------------------
      LOOP:  cpu time   74.3027: real time   74.2466

 eigenvalue-minimisations  :    48
 total energy-change (2. order) :-0.6562686E-08  (-0.8451773E-08)
 number of electron      15.9999990 magnetization 
 augmentation part        0.4370184 magnetization 

 Broyden mixing:
  rms(total) = 0.10228E-04    rms(broyden)= 0.10201E-04
  rms(prec ) = 0.10609E-04
  weight for this iteration     100.00

 eigenvalues of (default mixing * dielectric matrix)
  average eigenvalue GAMMA=   1.4511
  2.1832  0.8989  1.2712

 Free energy of the ion-electron system (eV)
  ---------------------------------------------------
  alpha Z        PSCENC =         0.04144063
  Ewald energy   TEWEN  =       672.99968868
  -Hartree energ DENC   =     -1153.49271690
  -exchange      EXHF   =         0.00000000
  -V(xc)+E(xc)   XCENC  =        54.96766873
  PAW double counting   =      1373.54001122    -1376.34021790
  entropy T*S    EENTRO =         0.00000000
  eigenvalues    EBANDS =      -204.58615662
  atomic energy  EATOM  =       596.16534815
  Solvation  Ediel_sol  =         0.00000000
  ---------------------------------------------------
  free energy    TOTEN  =       -36.70493401 eV

  energy without entropy =      -36.70493401  energy(sigma->0) =      -36.70493401


--------------------------------------------------------------------------------------------------------




----------------------------------------- Iteration  135(   5)  ---------------------------------------


    POTLOK:  cpu time   25.4991: real time   25.4790
    SETDIJ:  cpu time    0.0080: real time    0.0084
     EDDAV:  cpu time   41.8076: real time   41.7727
       DOS:  cpu time    0.0000: real time    0.0002
    CHARGE:  cpu time    5.9651: real time    5.9605
    MIXING:  cpu time    0.8819: real time    0.8816
    --------------------------------------------
      LOOP:  cpu time   74.1637: real time   74.1072

 eigenvalue-minimisations  :    48
 total energy-change (2. order) :-0.1412445E-08  (-0.3629327E-08)
 number of electron      15.9999990 magnetization 
 augmentation part        0.4370184 magnetization 

 Broyden mixing:
  rms(total) = 0.96704E-05    rms(broyden)= 0.96621E-05
  rms(prec ) = 0.10083E-04
  weight for this iteration     100.00

 eigenvalues of (default mixing * dielectric matrix)
  average eigenvalue GAMMA=   1.3722
  1.9193  1.9193  1.0272  0.6229

 Free energy of the ion-electron system (eV)
  ---------------------------------------------------
  alpha Z        PSCENC =         0.04144063
  Ewald energy   TEWEN  =       672.99968868
  -Hartree energ DENC   =     -1153.49271796
  -exchange      EXHF   =         0.00000000
  -V(xc)+E(xc)   XCENC  =        54.96766881
  PAW double counting   =      1373.54009027    -1376.34029689
  entropy T*S    EENTRO =         0.00000000
  eigenvalues    EBANDS =      -204.58615569
  atomic energy  EATOM  =       596.16534815
  Solvation  Ediel_sol  =         0.00000000
  ---------------------------------------------------
  free energy    TOTEN  =       -36.70493401 eV

  energy without entropy =      -36.70493401  energy(sigma->0) =      -36.70493401


--------------------------------------------------------------------------------------------------------




----------------------------------------- Iteration  135(   6)  ---------------------------------------


    POTLOK:  cpu time   24.8222: real time   24.8028
    SETDIJ:  cpu time    0.0090: real time    0.0084
     EDDAV:  cpu time   42.2676: real time   42.2331
       DOS:  cpu time    0.0000: real time    0.0002
    --------------------------------------------
      LOOP:  cpu time   67.1008: real time   67.0491

 eigenvalue-minimisations  :    48
 total energy-change (2. order) : 0.7323706E-09  (-0.2036701E-08)
 number of electron      15.9999990 magnetization 
 augmentation part        0.4370184 magnetization 

 Free energy of the ion-electron system (eV)
  ---------------------------------------------------
  alpha Z        PSCENC =         0.04144063
  Ewald energy   TEWEN  =       672.99968868
  -Hartree energ DENC   =     -1153.49271925
  -exchange      EXHF   =         0.00000000
  -V(xc)+E(xc)   XCENC  =        54.96766891
  PAW double counting   =      1373.54016441    -1376.34037098
  entropy T*S    EENTRO =         0.00000000
  eigenvalues    EBANDS =      -204.58615457
  atomic energy  EATOM  =       596.16534815
  Solvation  Ediel_sol  =         0.00000000
  ---------------------------------------------------
  free energy    TOTEN  =       -36.70493401 eV

  energy without entropy =      -36.70493401  energy(sigma->0) =      -36.70493401


--------------------------------------------------------------------------------------------------------




 average (electrostatic) potential at core
  the test charge radii are     0.5201  0.6991  0.7089
  (the norm of the test charge is              1.0000)
       1 -43.1706       2 -43.1686       3 -43.1692       4 -60.0786       5 -60.0726
       6 -73.2255
 
 
 
 E-fermi :  -7.0927     XC(G=0):  -0.0607     alpha+bet : -0.0137


 k-point     1 :       0.2500    0.2500    0.2500
  band No.  band energies     occupation 
      1     -22.5236      2.00000
      2     -19.3776      2.00000
      3     -12.8310      2.00000
      4     -11.4696      2.00000
      5     -11.4694      2.00000
      6      -8.4942      2.00000
      7      -8.0639      2.00000
      8      -8.0637      2.00000
      9      -0.8358      0.00000
     10      -0.4705      0.00000
     11      -0.4701      0.00000
     12       0.0203      0.00000

 k-point     2 :      -0.2500    0.2500    0.2500
  band No.  band energies     occupation 
      1     -22.5236      2.00000
      2     -19.3776      2.00000
      3     -12.8310      2.00000
      4     -11.4696      2.00000
      5     -11.4694      2.00000
      6      -8.4942      2.00000
      7      -8.0639      2.00000
      8      -8.0637      2.00000
      9      -0.8358      0.00000
     10      -0.4705      0.00000
     11      -0.4701      0.00000
     12       0.0203      0.00000

 k-point     3 :       0.2500   -0.2500    0.2500
  band No.  band energies     occupation 
      1     -22.5236      2.00000
      2     -19.3776      2.00000
      3     -12.8310      2.00000
      4     -11.4696      2.00000
      5     -11.4694      2.00000
      6      -8.4942      2.00000
      7      -8.0639      2.00000
      8      -8.0637      2.00000
      9      -0.8358      0.00000
     10      -0.4705      0.00000
     11      -0.4701      0.00000
     12       0.0204      0.00000

 k-point     4 :      -0.2500   -0.2500    0.2500
  band No.  band energies     occupation 
      1     -22.5236      2.00000
      2     -19.3776      2.00000
      3     -12.8310      2.00000
      4     -11.4697      2.00000
      5     -11.4694      2.00000
      6      -8.4942      2.00000
      7      -8.0639      2.00000
      8      -8.0637      2.00000
      9      -0.8358      0.00000
     10      -0.4705      0.00000
     11      -0.4701      0.00000
     12       0.0203      0.00000


--------------------------------------------------------------------------------------------------------


 soft charge-density along one line, spin component           1
         0         1         2         3         4         5         6         7         8         9
 total charge-density along one line
 
 pseudopotential strength for first ion, spin component:           1
 -2.364  -4.078  -0.002   0.000  -0.001
 -4.078  -6.948  -0.005   0.000  -0.002
 -0.002  -0.005  -0.330   0.000   0.002
  0.000   0.000   0.000  -0.334   0.000
 -0.001  -0.002   0.002   0.000  -0.333
 total augmentation occupancy for first ion, spin component:           1
  3.480  -0.626   0.403  -0.031   0.167
 -0.626   0.129  -0.074   0.006  -0.031
  0.403  -0.074   0.048  -0.003   0.017
 -0.031   0.006  -0.003   0.009  -0.001
  0.167  -0.031   0.017  -0.001   0.014


------------------------ aborting loop because EDIFF is reached ----------------------------------------


    CHARGE:  cpu time    6.2550: real time    6.2499
    FORLOC:  cpu time    2.8436: real time    2.8405
    FORNL :  cpu time   20.7159: real time   20.6999
    STRESS:  cpu time   61.4577: real time   61.4070
    FORCOR:  cpu time   22.5806: real time   22.5624
    FORHAR:  cpu time    7.6488: real time    7.6434
    MIXING:  cpu time    0.8519: real time    0.8503
    OFIELD:  cpu time    0.0000: real time    0.0000

  FORCE on cell =-STRESS in cart. coord.  units (eV):
  Direction    XX          YY          ZZ          XY          YZ          ZX
  --------------------------------------------------------------------------------------
  Alpha Z     0.04144     0.04144     0.04144
  Ewald     599.48569    36.90814    36.60560   -16.74761    -0.31349    10.42213
  Hartree   586.92162   283.36738   283.20373    -9.03183    -0.16984     5.62382
  E(xc)     -58.96303   -60.32241   -60.32306    -0.04037    -0.00076     0.02509
  Local   -1328.92572  -493.10636  -492.65652    24.88318     0.46716   -15.48916
  n-local   -28.22698   -24.80137   -24.79830     0.09986     0.00079    -0.06292
  augment     0.41111     0.39309     0.39304    -0.00029    -0.00015     0.00035
  Kinetic   228.32106   256.57693   256.59484     0.83438     0.01516    -0.51727
  Fock        0.00000     0.00000     0.00000     0.00000     0.00000     0.00000
  -------------------------------------------------------------------------------------
  Total      -0.93481    -0.94316    -0.93924    -0.00268    -0.00114     0.00204
  in kB      -0.05547    -0.05597    -0.05573    -0.00016    -0.00007     0.00012
  external pressure =       -0.06 kB  Pullay stress =        0.00 kB


 VOLUME and BASIS-vectors are now :
 -----------------------------------------------------------------------------
  energy-cutoff  :      400.00
  volume of cell :    27000.00
      direct lattice vectors                 reciprocal lattice vectors
    30.000000000  0.000000000  0.000000000     0.033333333  0.000000000  0.000000000
     0.000000000 30.000000000  0.000000000     0.000000000  0.033333333  0.000000000
     0.000000000  0.000000000 30.000000000     0.000000000  0.000000000  0.033333333

  length of vectors
    30.000000000 30.000000000 30.000000000     0.033333333  0.033333333  0.033333333


 FORCES acting on ions
    electron-ion (+dipol)            ewald-force                    non-local-force                 convergence-correction
 -----------------------------------------------------------------------------------------------
   0.344E+02 0.547E+02 -.408E+01   -.365E+02 -.599E+02 0.448E+01   0.214E+01 0.515E+01 -.401E+00   0.343E-05 -.388E-05 0.335E-06
   0.309E+02 -.248E+02 0.512E+02   -.327E+02 0.270E+02 -.560E+02   0.181E+01 -.228E+01 0.477E+01   -.306E-05 -.132E-05 0.423E-05
   0.325E+02 -.329E+02 -.453E+02   -.344E+02 0.360E+02 0.496E+02   0.197E+01 -.305E+01 -.426E+01   0.505E-06 -.365E-05 0.283E-05
   0.967E+02 -.289E+01 0.179E+01   -.101E+03 0.303E+01 -.188E+01   0.449E+01 -.135E+00 0.842E-01   0.740E-06 -.175E-04 0.141E-04
   0.664E+02 -.186E+01 0.116E+01   -.685E+02 0.192E+01 -.119E+01   0.212E+01 -.574E-01 0.349E-01   -.556E-05 -.119E-03 0.979E-04
   -.233E+03 0.692E+01 -.431E+01   0.273E+03 -.811E+01 0.505E+01   -.405E+02 0.120E+01 -.749E+00   -.544E-05 -.188E-03 0.157E-03
 -----------------------------------------------------------------------------------------------
   0.280E+02 -.819E+00 0.511E+00   0.000E+00 0.711E-14 0.000E+00   -.280E+02 0.826E+00 -.515E+00   -.938E-05 -.333E-03 0.276E-03
 
 
 POSITION                                       TOTAL-FORCE (eV/Angst)
 -----------------------------------------------------------------------------------
     14.09785     13.99947     15.07016         0.001549     -0.001287      0.001191
     14.16247     15.46429     14.05074        -0.001678     -0.001582      0.000887
     14.13277     15.61521     15.82990        -0.000076     -0.001294      0.000780
     14.51202     15.01462     14.99096         0.000272     -0.000795      0.000551
     15.96454     14.97066     15.01833        -0.001253      0.001379     -0.000988
     17.13051     14.93618     15.03981         0.001185      0.003579     -0.002420
 -----------------------------------------------------------------------------------
    total drift:                               -0.002195      0.006731     -0.003758


--------------------------------------------------------------------------------------------------------



  FREE ENERGIE OF THE ION-ELECTRON SYSTEM (eV)
  ---------------------------------------------------
  free  energy   TOTEN  =       -36.70493401 eV

  energy  without entropy=      -36.70493401  energy(sigma->0) =      -36.70493401
 
 d Force = 0.9682517E-06[ 0.967E-06, 0.969E-06]  d Energy = 0.9786244E-06-0.104E-07
 d Force =-0.1793056E-03[-0.178E-03,-0.180E-03]  d Ewald  =-0.1793056E-03-0.102E-11


--------------------------------------------------------------------------------------------------------


    POTLOK:  cpu time   21.2538: real time   21.2375


--------------------------------------------------------------------------------------------------------


 NEB: the previous image is higher in energy: T
 NEB: the next image is higher in energy    : F
 NEB: only prev energy greater

 NEB: Tangent
 ----------------------------------------------
     -0.04032      0.01113      0.63443
     -0.08494     -0.45475     -0.19179
      0.11659      0.48791     -0.17760
     -0.00196      0.00859      0.05086
      0.00288     -0.01618     -0.09674
      0.00678     -0.03803     -0.21902

 NEB: forces: par spring, perp REAL, dneb     0.000210    0.006183    0.000000
 NEB: distance to prev, next image, angle between     0.347682    0.347724  159.486797
 NEB: projections on to tangent (spring, REAL)     0.000210    0.001084

 stress matrix after NEB project (eV)
     -0.93481     -0.00268      0.00204
     -0.00268     -0.94316     -0.00114
      0.00204     -0.00114     -0.93924
  FORCES: max atom, RMS     0.004405    0.002525
  FORCE total and by dimension    0.006186    0.003612
  Stress total and by dimension    1.626534    0.943161
 OPT: skip step - force has converged


--------------------------------------------------------------------------------------------------------


  
 reached required accuracy - stopping structural energy minimisation
     LOOP+:  cpu time  682.4243: real time  681.9018
    4ORBIT:  cpu time    0.0000: real time    0.0000

 total amount of memory used by VASP on root node  3203891. kBytes
========================================================================

   base      :      30000. kBytes
   nonlr-proj:        695. kBytes
   fftplans  :     924480. kBytes
   grid      :    1872000. kBytes
   one-center:         18. kBytes
   wavefun   :     376698. kBytes
 
  
  
 General timing and accounting informations for this job:
 ========================================================
  
                  Total CPU time used (sec):    97154.859
                            User time (sec):    95673.501
                          System time (sec):     1481.362
                         Elapsed time (sec):    97129.263
  
                   Maximum memory used (kb):     4764876.
                   Average memory used (kb):           0.
  
                          Minor page faults:    112479492
                          Major page faults:            8
                 Voluntary context switches:        16052
