unknown system                          
           1
    30.000000    0.000000    0.000000
     0.000000   30.000000    0.000000
     0.000000    0.000000   30.000000
   H    C    N 
   3   2   1
Direct configuration=     1
   0.46964656  0.46687971  0.50206294
   0.47240043  0.51575831  0.46822129
   0.47106674  0.52068199  0.52754457
   0.48373795  0.50062170  0.49961275
   0.53215185  0.49877100  0.50082222
   0.57100164  0.49730186  0.50173282
Direct configuration=     2
   0.46965112  0.46688222  0.50205691
   0.47240242  0.51576448  0.46823010
   0.47106669  0.52066871  0.52754418
   0.48374182  0.50062047  0.49961115
   0.53214538  0.49877126  0.50082016
   0.57099776  0.49730744  0.50173408
Direct configuration=     3
   0.46965713  0.46688401  0.50204846
   0.47240444  0.51577414  0.46824066
   0.47106628  0.52065072  0.52754522
   0.48374550  0.50061809  0.49960929
   0.53213967  0.49877183  0.50081730
   0.57099219  0.49731582  0.50173564
Direct configuration=     4
   0.46966356  0.46688280  0.50203865
   0.47240562  0.51578679  0.46825033
   0.47106539  0.52063058  0.52754911
   0.48374706  0.50061466  0.49960760
   0.53213859  0.49877308  0.50081392
   0.57098502  0.49732673  0.50173696
Direct configuration=     5
   0.46966932  0.46687728  0.50202903
   0.47240535  0.51580075  0.46825734
   0.47106407  0.52061129  0.52755634
   0.48374709  0.50061083  0.49960610
   0.53213303  0.49877545  0.50081016
   0.57098639  0.49733910  0.50173761
Direct configuration=     6
   0.46967383  0.46686751  0.50202096
   0.47240322  0.51581400  0.46826126
   0.47106256  0.52059486  0.52756651
   0.48374415  0.50060711  0.49960469
   0.53213648  0.49877841  0.50080636
   0.57098505  0.49735283  0.50173678
Direct configuration=     7
   0.46967749  0.46685325  0.50201515
   0.47239852  0.51582527  0.46826252
   0.47106131  0.52058129  0.52757983
   0.48374008  0.50060300  0.49960354
   0.53213728  0.49878298  0.50080191
   0.57099063  0.49736895  0.50173361
Direct configuration=     8
   0.46967748  0.46685305  0.50201572
   0.47239808  0.51582444  0.46826235
   0.47106152  0.52058179  0.52757990
   0.48373997  0.50060286  0.49960373
   0.53213794  0.49878322  0.50080182
   0.57099032  0.49736938  0.50173305
Direct configuration=     9
   0.46967748  0.46685265  0.50201683
   0.47239719  0.51582279  0.46826204
   0.47106193  0.52058275  0.52758003
   0.48373982  0.50060258  0.49960410
   0.53213881  0.49878372  0.50080163
   0.57099008  0.49737026  0.50173194
Direct configuration=    10
   0.46967749  0.46685207  0.50201846
   0.47239589  0.51582036  0.46826162
   0.47106255  0.52058409  0.52758020
   0.48373970  0.50060218  0.49960465
   0.53213929  0.49878448  0.50080131
   0.57099039  0.49737155  0.50173033
Direct configuration=    11
   0.46967757  0.46685132  0.50202053
   0.47239420  0.51581721  0.46826118
   0.47106337  0.52058572  0.52758041
   0.48373962  0.50060170  0.49960536
   0.53213923  0.49878550  0.50080086
   0.57099131  0.49737328  0.50172823
Direct configuration=    12
   0.46967774  0.46685043  0.50202300
   0.47239215  0.51581338  0.46826079
   0.47106437  0.52058753  0.52758062
   0.48373955  0.50060114  0.49960623
   0.53213909  0.49878675  0.50080027
   0.57099241  0.49737551  0.50172565
Direct configuration=    13
   0.46967805  0.46684942  0.50202578
   0.47238976  0.51580897  0.46826055
   0.47106551  0.52058934  0.52758084
   0.48373939  0.50060054  0.49960724
   0.53213952  0.49878818  0.50079954
   0.57099306  0.49737827  0.50172263
Direct configuration=    14
   0.46967864  0.46684821  0.50202909
   0.47238676  0.51580358  0.46826055
   0.47106691  0.52059118  0.52758110
   0.48373917  0.50059979  0.49960848
   0.53214063  0.49878995  0.50079855
   0.57099318  0.49738200  0.50171880
Direct configuration=    15
   0.46967968  0.46684678  0.50203289
   0.47238306  0.51579720  0.46826099
   0.47106854  0.52059274  0.52758146
   0.48373906  0.50059879  0.49960999
   0.53214129  0.49879219  0.50079717
   0.57099364  0.49738700  0.50171406
Direct configuration=    16
   0.46968137  0.46684511  0.50203700
   0.47237859  0.51579011  0.46826207
   0.47107030  0.52059365  0.52758208
   0.48373930  0.50059726  0.49961176
   0.53214085  0.49879499  0.50079528
   0.57099486  0.49739358  0.50170839
Direct configuration=    17
   0.46968392  0.46684301  0.50204114
   0.47237328  0.51578270  0.46826401
   0.47107202  0.52059332  0.52758318
   0.48373967  0.50059513  0.49961375
   0.53214121  0.49879835  0.50079281
   0.57099516  0.49740218  0.50170168
Direct configuration=    18
   0.46968756  0.46684006  0.50204496
   0.47236707  0.51577553  0.46826705
   0.47107351  0.52059105  0.52758508
   0.48374014  0.50059248  0.49961590
   0.53214210  0.49880233  0.50078962
   0.57099489  0.49741324  0.50169396
Direct configuration=    19
   0.46969243  0.46683577  0.50204812
   0.47236000  0.51576926  0.46827123
   0.47107458  0.52058622  0.52758816
   0.48374080  0.50058940  0.49961814
   0.53214095  0.49880710  0.50078558
   0.57099650  0.49742695  0.50168533
Direct configuration=    20
   0.46969881  0.46682956  0.50205035
   0.47235199  0.51576447  0.46827654
   0.47107504  0.52057824  0.52759292
   0.48374078  0.50058574  0.49962037
   0.53214288  0.49881289  0.50078078
   0.57099577  0.49744379  0.50167561
Direct configuration=    21
   0.46970697  0.46682122  0.50205151
   0.47234289  0.51576173  0.46828282
   0.47107470  0.52056694  0.52759989
   0.48374105  0.50058031  0.49962265
   0.53214029  0.49882041  0.50077495
   0.57099937  0.49746411  0.50166475
Direct configuration=    22
   0.46971693  0.46681015  0.50205197
   0.47233263  0.51576042  0.46829020
   0.47107371  0.52055215  0.52760891
   0.48373952  0.50057374  0.49962494
   0.53214854  0.49882983  0.50076839
   0.57099396  0.49748843  0.50165214
Direct configuration=    23
   0.46971731  0.46680962  0.50205197
   0.47233242  0.51576046  0.46829044
   0.47107368  0.52055157  0.52760920
   0.48374020  0.50057368  0.49962500
   0.53214260  0.49883045  0.50076808
   0.57099908  0.49748895  0.50165188
Direct configuration=    24
   0.46971740  0.46680949  0.50205200
   0.47233236  0.51576045  0.46829049
   0.47107367  0.52055145  0.52760926
   0.48374017  0.50057366  0.49962501
   0.53214266  0.49883055  0.50076803
   0.57099903  0.49748913  0.50165177
Direct configuration=    25
   0.46971757  0.46680925  0.50205210
   0.47233223  0.51576040  0.46829057
   0.47107366  0.52055124  0.52760937
   0.48374012  0.50057361  0.49962504
   0.53214278  0.49883074  0.50076793
   0.57099894  0.49748948  0.50165155
Direct configuration=    26
   0.46971783  0.46680890  0.50205233
   0.47233202  0.51576026  0.46829066
   0.47107365  0.52055100  0.52760952
   0.48374004  0.50057353  0.49962509
   0.53214290  0.49883104  0.50076777
   0.57099885  0.49748999  0.50165119
Direct configuration=    27
   0.46971816  0.46680844  0.50205274
   0.47233173  0.51576000  0.46829075
   0.47107366  0.52055077  0.52760968
   0.48373995  0.50057343  0.49962516
   0.53214300  0.49883143  0.50076754
   0.57099878  0.49749066  0.50165069
Direct configuration=    28
   0.46971856  0.46680790  0.50205341
   0.47233136  0.51575956  0.46829080
   0.47107369  0.52055062  0.52760983
   0.48373986  0.50057329  0.49962527
   0.53214303  0.49883190  0.50076723
   0.57099878  0.49749146  0.50165003
Direct configuration=    29
   0.46971902  0.46680729  0.50205440
   0.47233091  0.51575889  0.46829079
   0.47107377  0.52055062  0.52760994
   0.48373976  0.50057311  0.49962540
   0.53214300  0.49883244  0.50076685
   0.57099883  0.49749238  0.50164919
Direct configuration=    30
   0.46971959  0.46680655  0.50205596
   0.47233029  0.51575781  0.46829066
   0.47107392  0.52055088  0.52760997
   0.48373965  0.50057286  0.49962560
   0.53214290  0.49883311  0.50076632
   0.57099894  0.49749351  0.50164804
Direct configuration=    31
   0.46972027  0.46680569  0.50205838
   0.47232947  0.51575611  0.46829035
   0.47107418  0.52055160  0.52760987
   0.48373951  0.50057253  0.49962589
   0.53214277  0.49883391  0.50076561
   0.57099909  0.49749489  0.50164647
Direct configuration=    32
   0.46972107  0.46680470  0.50206205
   0.47232838  0.51575349  0.46828975
   0.47107462  0.52055302  0.52760951
   0.48373933  0.50057209  0.49962629
   0.53214267  0.49883487  0.50076464
   0.57099921  0.49749653  0.50164432
Direct configuration=    33
   0.46972202  0.46680361  0.50206748
   0.47232692  0.51574956  0.46828874
   0.47107533  0.52055551  0.52760876
   0.48373909  0.50057153  0.49962687
   0.53214267  0.49883600  0.50076334
   0.57099924  0.49749849  0.50164139
Direct configuration=    34
   0.46972312  0.46680243  0.50207536
   0.47232499  0.51574378  0.46828714
   0.47107642  0.52055955  0.52760738
   0.48373876  0.50057084  0.49962766
   0.53214277  0.49883729  0.50076159
   0.57099919  0.49750080  0.50163743
Direct configuration=    35
   0.46972441  0.46680122  0.50208659
   0.47232243  0.51573544  0.46828477
   0.47107805  0.52056571  0.52760509
   0.48373836  0.50057002  0.49962877
   0.53214284  0.49883876  0.50075926
   0.57099916  0.49750352  0.50163210
Direct configuration=    36
   0.46972600  0.46680003  0.50210157
   0.47231911  0.51572412  0.46828170
   0.47108030  0.52057412  0.52760170
   0.48373786  0.50056906  0.49963023
   0.53214268  0.49884049  0.50075622
   0.57099928  0.49750682  0.50162514
Direct configuration=    37
   0.46972810  0.46679890  0.50212055
   0.47231484  0.51570946  0.46827814
   0.47108320  0.52058466  0.52759708
   0.48373724  0.50056796  0.49963213
   0.53214233  0.49884257  0.50075240
   0.57099948  0.49751105  0.50161628
Direct configuration=    38
   0.46973109  0.46679792  0.50214329
   0.47230932  0.51569132  0.46827461
   0.47108668  0.52059667  0.52759120
   0.48373656  0.50056668  0.49963451
   0.53214221  0.49884516  0.50074772
   0.57099932  0.49751681  0.50160525
Direct configuration=    39
   0.46973565  0.46679693  0.50216831
   0.47230200  0.51567033  0.46827223
   0.47109028  0.52060824  0.52758461
   0.48373627  0.50056495  0.49963742
   0.53214182  0.49884874  0.50074215
   0.57099911  0.49752531  0.50159187
Direct configuration=    40
   0.46973582  0.46679687  0.50216813
   0.47230183  0.51567037  0.46827243
   0.47109020  0.52060791  0.52758472
   0.48373636  0.50056488  0.49963744
   0.53214180  0.49884887  0.50074211
   0.57099913  0.49752562  0.50159175
Direct configuration=    41
   0.46973615  0.46679674  0.50216777
   0.47230150  0.51567043  0.46827283
   0.47109003  0.52060725  0.52758494
   0.48373652  0.50056473  0.49963750
   0.53214177  0.49884912  0.50074202
   0.57099917  0.49752625  0.50159152
Direct configuration=    42
   0.46973666  0.46679654  0.50216726
   0.47230099  0.51567052  0.46827341
   0.47108978  0.52060627  0.52758528
   0.48373674  0.50056452  0.49963759
   0.53214176  0.49884949  0.50074190
   0.57099921  0.49752719  0.50159117
Direct configuration=    43
   0.46973732  0.46679624  0.50216660
   0.47230032  0.51567061  0.46827416
   0.47108946  0.52060499  0.52758572
   0.48373702  0.50056425  0.49963770
   0.53214178  0.49884999  0.50074172
   0.57099924  0.49752843  0.50159068
Direct configuration=    44
   0.46973815  0.46679585  0.50216583
   0.47229947  0.51567071  0.46827508
   0.47108907  0.52060343  0.52758628
   0.48373731  0.50056392  0.49963785
   0.53214186  0.49885062  0.50074149
   0.57099928  0.49752999  0.50159006
Direct configuration=    45
   0.46973913  0.46679533  0.50216499
   0.47229845  0.51567078  0.46827613
   0.47108862  0.52060164  0.52758695
   0.48373761  0.50056354  0.49963804
   0.53214198  0.49885138  0.50074119
   0.57099935  0.49753186  0.50158929
Direct configuration=    46
   0.46974040  0.46679459  0.50216403
   0.47229713  0.51567080  0.46827742
   0.47108805  0.52059941  0.52758783
   0.48373793  0.50056305  0.49963829
   0.53214214  0.49885239  0.50074078
   0.57099949  0.49753428  0.50158824
Direct configuration=    47
   0.46974201  0.46679354  0.50216301
   0.47229541  0.51567072  0.46827895
   0.47108738  0.52059674  0.52758896
   0.48373824  0.50056244  0.49963862
   0.53214234  0.49885371  0.50074022
   0.57099978  0.49753738  0.50158683
Direct configuration=    48
   0.46974403  0.46679208  0.50216206
   0.47229322  0.51567042  0.46828070
   0.47108659  0.52059364  0.52759039
   0.48373849  0.50056167  0.49963907
   0.53214260  0.49885541  0.50073944
   0.57100022  0.49754130  0.50158493
Direct configuration=    49
   0.46974654  0.46679009  0.50216139
   0.47229045  0.51566976  0.46828262
   0.47108570  0.52059020  0.52759217
   0.48373864  0.50056070  0.49963966
   0.53214302  0.49885760  0.50073836
   0.57100081  0.49754619  0.50158238
Direct configuration=    50
   0.46974962  0.46678744  0.50216131
   0.47228697  0.51566849  0.46828464
   0.47108476  0.52058655  0.52759431
   0.48373868  0.50055945  0.49964045
   0.53214361  0.49886038  0.50073689
   0.57100151  0.49755222  0.50157898
Direct configuration=    51
   0.46975335  0.46678403  0.50216226
   0.47228268  0.51566629  0.46828667
   0.47108383  0.52058289  0.52759679
   0.48373859  0.50055785  0.49964150
   0.53214433  0.49886397  0.50073487
   0.57100239  0.49755953  0.50157450
Direct configuration=    52
   0.46975789  0.46677976  0.50216476
   0.47227749  0.51566268  0.46828866
   0.47108307  0.52057940  0.52759949
   0.48373846  0.50055582  0.49964286
   0.53214472  0.49886866  0.50073216
   0.57100353  0.49756823  0.50156865
Direct configuration=    53
   0.46976340  0.46677460  0.50216946
   0.47227122  0.51565708  0.46829064
   0.47108259  0.52057629  0.52760221
   0.48373816  0.50055334  0.49964463
   0.53214561  0.49887468  0.50072854
   0.57100417  0.49757855  0.50156111
Direct configuration=    54
   0.46977019  0.46676861  0.50217708
   0.47226368  0.51564883  0.46829268
   0.47108257  0.52057375  0.52760469
   0.48373780  0.50055045  0.49964686
   0.53214586  0.49888214  0.50072382
   0.57100505  0.49759075  0.50155146
Direct configuration=    55
   0.46977869  0.46676190  0.50218833
   0.47225452  0.51563724  0.46829489
   0.47108311  0.52057192  0.52760668
   0.48373733  0.50054712  0.49964964
   0.53214607  0.49889102  0.50071784
   0.57100544  0.49760531  0.50153922
Direct configuration=    56
   0.46978950  0.46675453  0.50220374
   0.47224326  0.51562186  0.46829744
   0.47108422  0.52057076  0.52760823
   0.48373700  0.50054319  0.49965310
   0.53214548  0.49890135  0.50071014
   0.57100568  0.49762283  0.50152395
Direct configuration=    57
   0.46980306  0.46674611  0.50222285
   0.47222904  0.51560283  0.46830018
   0.47108550  0.52056979  0.52760953
   0.48373732  0.50053834  0.49965896
   0.53214599  0.49891324  0.50070008
   0.57100421  0.49764417  0.50150498
Direct configuration=    58
   0.46981945  0.46673583  0.50224433
   0.47221194  0.51558073  0.46830500
   0.47108622  0.52056848  0.52761237
   0.48373810  0.50053312  0.49966394
   0.53213931  0.49892680  0.50068832
   0.57101008  0.49766949  0.50148262
Direct configuration=    59
   0.46981981  0.46673553  0.50224438
   0.47221140  0.51558062  0.46830523
   0.47108607  0.52056820  0.52761265
   0.48373700  0.50053291  0.49966396
   0.53214677  0.49892683  0.50068834
   0.57100406  0.49767037  0.50148203
Direct configuration=    60
   0.46981989  0.46673545  0.50224459
   0.47221125  0.51558045  0.46830522
   0.47108608  0.52056828  0.52761266
   0.48373704  0.50053286  0.49966399
   0.53214624  0.49892691  0.50068826
   0.57100460  0.49767051  0.50148186
Direct configuration=    61
   0.46982005  0.46673529  0.50224524
   0.47221093  0.51557994  0.46830513
   0.47108614  0.52056863  0.52761261
   0.48373710  0.50053276  0.49966408
   0.53214539  0.49892706  0.50068808
   0.57100549  0.49767079  0.50148145
Direct configuration=    62
   0.46982027  0.46673505  0.50224634
   0.47221043  0.51557908  0.46830496
   0.47108624  0.52056922  0.52761251
   0.48373713  0.50053262  0.49966421
   0.53214458  0.49892727  0.50068780
   0.57100644  0.49767122  0.50148078
Direct configuration=    63
   0.46982056  0.46673474  0.50224784
   0.47220976  0.51557791  0.46830472
   0.47108639  0.52057004  0.52761234
   0.48373710  0.50053244  0.49966440
   0.53214418  0.49892752  0.50068744
   0.57100710  0.49767180  0.50147986
Direct configuration=    64
   0.46982092  0.46673437  0.50224968
   0.47220893  0.51557646  0.46830445
   0.47108658  0.52057104  0.52761211
   0.48373697  0.50053223  0.49966463
   0.53214439  0.49892781  0.50068700
   0.57100730  0.49767254  0.50147873
Direct configuration=    65
   0.46982134  0.46673394  0.50225183
   0.47220797  0.51557475  0.46830414
   0.47108680  0.52057218  0.52761183
   0.48373678  0.50053201  0.49966491
   0.53214515  0.49892814  0.50068650
   0.57100706  0.49767342  0.50147739
Direct configuration=    66
   0.46982190  0.46673341  0.50225456
   0.47220672  0.51557257  0.46830379
   0.47108709  0.52057358  0.52761146
   0.48373652  0.50053173  0.49966527
   0.53214630  0.49892857  0.50068584
   0.57100655  0.49767459  0.50147567
Direct configuration=    67
   0.46982265  0.46673274  0.50225798
   0.47220514  0.51556980  0.46830343
   0.47108747  0.52057524  0.52761097
   0.48373629  0.50053139  0.49966575
   0.53214719  0.49892916  0.50068499
   0.57100633  0.49767611  0.50147348
Direct configuration=    68
   0.46982364  0.46673194  0.50226205
   0.47220320  0.51556644  0.46830310
   0.47108793  0.52057711  0.52761038
   0.48373619  0.50053097  0.49966636
   0.53214719  0.49892996  0.50068390
   0.57100693  0.49767801  0.50147081
Direct configuration=    69
   0.46982496  0.46673099  0.50226680
   0.47220082  0.51556243  0.46830289
   0.47108847  0.52057908  0.52760968
   0.48373625  0.50053045  0.49966710
   0.53214631  0.49893105  0.50068254
   0.57100827  0.49768043  0.50146758
Direct configuration=    70
   0.46982673  0.46672987  0.50227220
   0.47219789  0.51555773  0.46830295
   0.47108909  0.52058095  0.52760892
   0.48373629  0.50052977  0.49966801
   0.53214605  0.49893247  0.50068087
   0.57100902  0.49768362  0.50146365
Direct configuration=    71
   0.46982901  0.46672857  0.50227795
   0.47219442  0.51555254  0.46830340
   0.47108971  0.52058246  0.52760822
   0.48373623  0.50052889  0.49966905
   0.53214725  0.49893425  0.50067892
   0.57100844  0.49768768  0.50145906
Direct configuration=    72
   0.46983204  0.46672697  0.50228370
   0.47219026  0.51554705  0.46830455
   0.47109024  0.52058305  0.52760787
   0.48373635  0.50052770  0.49967025
   0.53214805  0.49893671  0.50067646
   0.57100811  0.49769291  0.50145378
Direct configuration=    73
   0.46983580  0.46672494  0.50228894
   0.47218552  0.51554169  0.46830642
   0.47109060  0.52058240  0.52760809
   0.48373682  0.50052621  0.49967157
   0.53214689  0.49893990  0.50067354
   0.57100941  0.49769925  0.50144805
Direct configuration=    74
   0.46984040  0.46672222  0.50229303
   0.47218009  0.51553695  0.46830918
   0.47109062  0.52057990  0.52760931
   0.48373719  0.50052441  0.49967297
   0.53214712  0.49894385  0.50067023
   0.57100962  0.49770705  0.50144189
Direct configuration=    75
   0.46984593  0.46671846  0.50229536
   0.47217392  0.51553338  0.46831285
   0.47109018  0.52057502  0.52761196
   0.48373737  0.50052234  0.49967443
   0.53214876  0.49894868  0.50066660
   0.57100888  0.49771651  0.50143540
Direct configuration=    76
   0.46985246  0.46671340  0.50229551
   0.47216701  0.51553136  0.46831738
   0.47108923  0.52056748  0.52761642
   0.48373785  0.50051995  0.49967593
   0.53214710  0.49895459  0.50066263
   0.57101140  0.49772762  0.50142873
Direct configuration=    77
   0.46986019  0.46670680  0.50229322
   0.47215923  0.51553116  0.46832283
   0.47108772  0.52055692  0.52762309
   0.48373745  0.50051717  0.49967749
   0.53215039  0.49896142  0.50065824
   0.57101007  0.49774094  0.50142171
Direct configuration=    78
   0.46986948  0.46669855  0.50228870
   0.47215063  0.51553261  0.46832925
   0.47108594  0.52054335  0.52763212
   0.48373736  0.50051358  0.49967922
   0.53214609  0.49896991  0.50065302
   0.57101558  0.49775643  0.50141429
Direct configuration=    79
   0.46986973  0.46669827  0.50228848
   0.47215043  0.51553273  0.46832943
   0.47108592  0.52054291  0.52763245
   0.48373688  0.50051351  0.49967922
   0.53214947  0.49897004  0.50065297
   0.57101264  0.49775697  0.50141404
Direct configuration=    80
   0.46987037  0.46669759  0.50228799
   0.47214996  0.51553301  0.46832985
   0.47108591  0.52054188  0.52763323
   0.48373637  0.50051330  0.49967926
   0.53215260  0.49897051  0.50065275
   0.57100988  0.49775814  0.50141353
Direct configuration=    81
   0.46987044  0.46669752  0.50228794
   0.47214991  0.51553304  0.46832989
   0.47108591  0.52054177  0.52763330
   0.48373646  0.50051327  0.49967927
   0.53215184  0.49897059  0.50065270
   0.57101052  0.49775824  0.50141349
Direct configuration=    82
   0.46987058  0.46669738  0.50228786
   0.47214982  0.51553308  0.46832997
   0.47108592  0.52054157  0.52763346
   0.48373661  0.50051322  0.49967930
   0.53215050  0.49897075  0.50065261
   0.57101165  0.49775843  0.50141341
Direct configuration=    83
   0.46987081  0.46669716  0.50228774
   0.47214966  0.51553314  0.46833010
   0.47108594  0.52054125  0.52763370
   0.48373678  0.50051313  0.49967933
   0.53214893  0.49897100  0.50065247
   0.57101297  0.49775876  0.50141326
Direct configuration=    84
   0.46987083  0.46669714  0.50228773
   0.47214964  0.51553314  0.46833011
   0.47108594  0.52054123  0.52763372
   0.48373677  0.50051312  0.49967933
   0.53214897  0.49897101  0.50065246
   0.57101294  0.49775879  0.50141324
Direct configuration=    85
   0.46987086  0.46669711  0.50228772
   0.47214962  0.51553314  0.46833012
   0.47108594  0.52054119  0.52763375
   0.48373676  0.50051311  0.49967934
   0.53214903  0.49897104  0.50065244
   0.57101288  0.49775885  0.50141321
Direct configuration=    86
   0.46987091  0.46669706  0.50228771
   0.47214958  0.51553315  0.46833015
   0.47108594  0.52054112  0.52763380
   0.48373674  0.50051309  0.49967935
   0.53214911  0.49897108  0.50065242
   0.57101280  0.49775894  0.50141316
Direct configuration=    87
   0.46987098  0.46669699  0.50228769
   0.47214952  0.51553315  0.46833018
   0.47108595  0.52054104  0.52763387
   0.48373672  0.50051307  0.49967936
   0.53214922  0.49897113  0.50065239
   0.57101270  0.49775905  0.50141310
Direct configuration=    88
   0.46987106  0.46669691  0.50228768
   0.47214945  0.51553314  0.46833022
   0.47108595  0.52054095  0.52763395
   0.48373669  0.50051304  0.49967937
   0.53214933  0.49897120  0.50065234
   0.57101260  0.49775920  0.50141302
Direct configuration=    89
   0.46987116  0.46669681  0.50228768
   0.47214936  0.51553313  0.46833027
   0.47108597  0.52054084  0.52763405
   0.48373666  0.50051300  0.49967939
   0.53214944  0.49897129  0.50065229
   0.57101249  0.49775938  0.50141292
Direct configuration=    90
   0.46987129  0.46669668  0.50228770
   0.47214925  0.51553310  0.46833032
   0.47108598  0.52054071  0.52763417
   0.48373663  0.50051295  0.49967942
   0.53214955  0.49897140  0.50065221
   0.57101238  0.49775960  0.50141278
Direct configuration=    91
   0.46987146  0.46669651  0.50228775
   0.47214910  0.51553304  0.46833039
   0.47108601  0.52054057  0.52763431
   0.48373659  0.50051289  0.49967946
   0.53214964  0.49897154  0.50065211
   0.57101229  0.49775989  0.50141259
Direct configuration=    92
   0.46987166  0.46669630  0.50228785
   0.47214890  0.51553293  0.46833045
   0.47108606  0.52054042  0.52763448
   0.48373655  0.50051281  0.49967951
   0.53214968  0.49897173  0.50065197
   0.57101223  0.49776025  0.50141234
Direct configuration=    93
   0.46987191  0.46669605  0.50228805
   0.47214865  0.51553274  0.46833051
   0.47108612  0.52054030  0.52763467
   0.48373651  0.50051271  0.49967957
   0.53214967  0.49897195  0.50065179
   0.57101221  0.49776069  0.50141201
Direct configuration=    94
   0.46987222  0.46669574  0.50228840
   0.47214833  0.51553244  0.46833055
   0.47108622  0.52054022  0.52763486
   0.48373647  0.50051259  0.49967966
   0.53214959  0.49897223  0.50065155
   0.57101225  0.49776122  0.50141158
Direct configuration=    95
   0.46987257  0.46669538  0.50228897
   0.47214792  0.51553196  0.46833055
   0.47108637  0.52054024  0.52763505
   0.48373643  0.50051245  0.49967978
   0.53214945  0.49897256  0.50065124
   0.57101234  0.49776186  0.50141100
Direct configuration=    96
   0.46987300  0.46669494  0.50228981
   0.47214740  0.51553127  0.46833053
   0.47108657  0.52054037  0.52763523
   0.48373638  0.50051228  0.49967994
   0.53214926  0.49897296  0.50065084
   0.57101247  0.49776263  0.50141025
Direct configuration=    97
   0.46987353  0.46669442  0.50229097
   0.47214674  0.51553032  0.46833046
   0.47108685  0.52054063  0.52763540
   0.48373630  0.50051207  0.49968014
   0.53214909  0.49897344  0.50065033
   0.57101257  0.49776356  0.50140929
Direct configuration=    98
   0.46987416  0.46669381  0.50229252
   0.47214592  0.51552905  0.46833036
   0.47108720  0.52054103  0.52763556
   0.48373619  0.50051181  0.49968040
   0.53214901  0.49897402  0.50064969
   0.57101260  0.49776471  0.50140806
Direct configuration=    99
   0.46987495  0.46669310  0.50229452
   0.47214488  0.51552741  0.46833024
   0.47108766  0.52054158  0.52763570
   0.48373603  0.50051150  0.49968073
   0.53214906  0.49897473  0.50064890
   0.57101250  0.49776613  0.50140651
Direct configuration=   100
   0.46987593  0.46669226  0.50229702
   0.47214359  0.51552532  0.46833013
   0.47108822  0.52054226  0.52763582
   0.48373581  0.50051111  0.49968113
   0.53214920  0.49897559  0.50064791
   0.57101231  0.49776789  0.50140458
Direct configuration=   101
   0.46987717  0.46669129  0.50230009
   0.47214198  0.51552274  0.46833006
   0.47108891  0.52054303  0.52763593
   0.48373557  0.50051062  0.49968164
   0.53214924  0.49897665  0.50064669
   0.57101220  0.49777008  0.50140219
Direct configuration=   102
   0.46987872  0.46669017  0.50230371
   0.47213998  0.51551962  0.46833010
   0.47108972  0.52054382  0.52763604
   0.48373534  0.50051001  0.49968225
   0.53214900  0.49897798  0.50064521
   0.57101230  0.49777283  0.50139929
Direct configuration=   103
   0.46988069  0.46668885  0.50230785
   0.47213749  0.51551595  0.46833037
   0.47109064  0.52054445  0.52763620
   0.48373512  0.50050925  0.49968299
   0.53214866  0.49897962  0.50064341
   0.57101248  0.49777630  0.50139578
Direct configuration=   104
   0.46988317  0.46668729  0.50231231
   0.47213443  0.51551183  0.46833097
   0.47109161  0.52054469  0.52763649
   0.48373481  0.50050824  0.49968396
   0.53214869  0.49898165  0.50064127
   0.57101236  0.49778070  0.50139160
Direct configuration=   105
   0.46988625  0.46668536  0.50231680
   0.47213070  0.51550746  0.46833208
   0.47109254  0.52054422  0.52763711
   0.48373454  0.50050696  0.49968513
   0.53214884  0.49898415  0.50063877
   0.57101218  0.49778625  0.50138672
Direct configuration=   106
   0.46988996  0.46668289  0.50232089
   0.47212626  0.51550311  0.46833382
   0.47109330  0.52054272  0.52763827
   0.48373446  0.50050532  0.49968655
   0.53214850  0.49898724  0.50063590
   0.57101257  0.49779312  0.50138117
Direct configuration=   107
   0.46989437  0.46667964  0.50232416
   0.47212105  0.51549910  0.46833641
   0.47109371  0.52053980  0.52764030
   0.48373454  0.50050337  0.49968806
   0.53214862  0.49899095  0.50063273
   0.57101277  0.49780154  0.50137494
Direct configuration=   108
   0.46989952  0.46667536  0.50232620
   0.47211500  0.51549572  0.46834001
   0.47109363  0.52053505  0.52764353
   0.48373478  0.50050111  0.49968954
   0.53214918  0.49899538  0.50062929
   0.57101296  0.49781178  0.50136804
Direct configuration=   109
   0.46990557  0.46666988  0.50232673
   0.47210802  0.51549321  0.46834465
   0.47109301  0.52052806  0.52764818
   0.48373511  0.50049845  0.49969110
   0.53214899  0.49900072  0.50062553
   0.57101436  0.49782409  0.50136040
Direct configuration=   110
   0.46991273  0.46666312  0.50232576
   0.47209995  0.51549154  0.46835022
   0.47109191  0.52051852  0.52765429
   0.48373483  0.50049509  0.49969305
   0.53215146  0.49900729  0.50062153
   0.57101419  0.49783885  0.50135175
Direct configuration=   111
   0.46992115  0.46665512  0.50232393
   0.47209081  0.51549020  0.46835663
   0.47109053  0.52050671  0.52766171
   0.48373509  0.50049099  0.49969546
   0.53214777  0.49901540  0.50061696
   0.57101973  0.49785603  0.50134190
Direct configuration=   112
   0.46992135  0.46665491  0.50232398
   0.47209061  0.51549009  0.46835677
   0.47109049  0.52050644  0.52766189
   0.48373465  0.50049091  0.49969549
   0.53215129  0.49901550  0.50061692
   0.57101670  0.49785658  0.50134155
Direct configuration=   113
   0.46992185  0.46665439  0.50232425
   0.47209012  0.51548971  0.46835706
   0.47109045  0.52050590  0.52766229
   0.48373427  0.50049069  0.49969559
   0.53215438  0.49901593  0.50061669
   0.57101402  0.49785783  0.50134072
Direct configuration=   114
   0.46992190  0.46665434  0.50232431
   0.47209007  0.51548965  0.46835707
   0.47109046  0.52050587  0.52766232
   0.48373437  0.50049066  0.49969561
   0.53215358  0.49901600  0.50061664
   0.57101470  0.49785793  0.50134064
Direct configuration=   115
   0.46992201  0.46665423  0.50232447
   0.47208997  0.51548949  0.46835710
   0.47109048  0.52050584  0.52766237
   0.48373454  0.50049060  0.49969566
   0.53215219  0.49901615  0.50061654
   0.57101589  0.49785813  0.50134046
Direct configuration=   116
   0.46992218  0.46665407  0.50232480
   0.47208978  0.51548920  0.46835711
   0.47109053  0.52050584  0.52766243
   0.48373474  0.50049050  0.49969574
   0.53215059  0.49901636  0.50061638
   0.57101726  0.49785847  0.50134014
Direct configuration=   117
   0.46992219  0.46665406  0.50232484
   0.47208976  0.51548916  0.46835711