  22  22   0   0
  0.1227273E+04  0.3000000E-08  0.3000000E-08  0.3000000E-08  0.0000000E+00
  1.000000000000000E-004
  CAR 
 unknown system                          
      2.19743039    -28.25288325  301     -4.60274317      1.00000000
    -28.253  0.0000E+00  0.0000E+00
    -28.151  0.0000E+00  0.0000E+00
    -28.050  0.0000E+00  0.0000E+00
    -27.948  0.0000E+00  0.0000E+00
    -27.847  0.0000E+00  0.0000E+00
    -27.745  0.0000E+00  0.0000E+00
    -27.644  0.0000E+00  0.0000E+00
    -27.542  0.0000E+00  0.0000E+00
    -27.441  0.0000E+00  0.0000E+00
    -27.339  0.5104E-15  0.5181E-16
    -27.238  0.1074E-12  0.1095E-13
    -27.136  0.1361E-10  0.1393E-11
    -27.035  0.1041E-08  0.1071E-09
    -26.933  0.4807E-07  0.4987E-08
    -26.832  0.1343E-05  0.1413E-06
    -26.730  0.2273E-04  0.2449E-05
    -26.629  0.2336E-03  0.2615E-04
    -26.527  0.1459E-02  0.1742E-03
    -26.426  0.5550E-02  0.7376E-03
    -26.324  0.1287E-01  0.2044E-02
    -26.223  0.1822E-01  0.3894E-02
    -26.121  0.1575E-01  0.5492E-02
    -26.020  0.8328E-02  0.6338E-02
    -25.918  0.2889E-02  0.6631E-02
    -25.817  0.1897E-02  0.6823E-02
    -25.715  0.5384E-02  0.7370E-02
    -25.614  0.1258E-01  0.8647E-02
    -25.512  0.1815E-01  0.1049E-01
    -25.411  0.1598E-01  0.1211E-01
    -25.309  0.8591E-02  0.1298E-01
    -25.208  0.2817E-02  0.1327E-01
    -25.106  0.5630E-03  0.1333E-01
    -25.005  0.6845E-04  0.1333E-01
    -24.903  0.5055E-05  0.1333E-01
    -24.802  0.2264E-06  0.1333E-01
    -24.700  0.6138E-08  0.1333E-01
    -24.599  0.1006E-09  0.1333E-01
    -24.497  0.1137E-11  0.1333E-01
    -24.396  0.1755E-10  0.1333E-01
    -24.294  0.1304E-08  0.1333E-01
    -24.193  0.5858E-07  0.1333E-01
    -24.091  0.1592E-05  0.1333E-01
    -23.990  0.2621E-04  0.1334E-01
    -23.888  0.2619E-03  0.1336E-01
    -23.787  0.1592E-02  0.1352E-01
    -23.685  0.5891E-02  0.1412E-01
    -23.584  0.1329E-01  0.1547E-01
    -23.482  0.1831E-01  0.1733E-01
    -23.381  0.1540E-01  0.1889E-01
    -23.279  0.7903E-02  0.1969E-01
    -23.178  0.2477E-02  0.1995E-01
    -23.076  0.5136E-03  0.2000E-01
    -22.975  0.4338E-03  0.2004E-01
    -22.873  0.2106E-02  0.2026E-01
    -22.772  0.7102E-02  0.2098E-01
    -22.670  0.1463E-01  0.2246E-01
    -22.569  0.1840E-01  0.2433E-01
    -22.467  0.1413E-01  0.2577E-01
    -22.366  0.6623E-02  0.2644E-01
    -22.264  0.1893E-02  0.2663E-01
    -22.163  0.3296E-03  0.2666E-01
    -22.061  0.3490E-04  0.2667E-01
    -21.960  0.2243E-05  0.2667E-01
    -21.858  0.8740E-07  0.2667E-01
    -21.757  0.2061E-08  0.2667E-01
    -21.655  0.2935E-10  0.2667E-01
    -21.554  0.2522E-12  0.2667E-01
    -21.452  0.1313E-14  0.2667E-01
    -21.351  0.0000E+00  0.2667E-01
    -21.249  0.0000E+00  0.2667E-01
    -21.148  0.0000E+00  0.2667E-01
    -21.046  0.0000E+00  0.2667E-01
    -20.945  0.0000E+00  0.2667E-01
    -20.843  0.7292E-17  0.2667E-01
    -20.742  0.2392E-14  0.2667E-01
    -20.640  0.4369E-12  0.2667E-01
    -20.539  0.4809E-10  0.2667E-01
    -20.437  0.3194E-08  0.2667E-01
    -20.336  0.1282E-06  0.2667E-01
    -20.234  0.3112E-05  0.2667E-01
    -20.133  0.4581E-04  0.2667E-01
    -20.031  0.4096E-03  0.2671E-01
    -19.930  0.2227E-02  0.2694E-01
    -19.828  0.7378E-02  0.2769E-01
    -19.727  0.1491E-01  0.2920E-01
    -19.625  0.1838E-01  0.3107E-01
    -19.524  0.1384E-01  0.3247E-01
    -19.422  0.6362E-02  0.3312E-01
    -19.321  0.1783E-02  0.3330E-01
    -19.219  0.3043E-03  0.3333E-01
    -19.118  0.3159E-04  0.3333E-01
    -19.016  0.1992E-05  0.3333E-01
    -18.915  0.1475E-06  0.3333E-01
    -18.813  0.1890E-05  0.3333E-01
    -18.712  0.3023E-04  0.3334E-01
    -18.610  0.2938E-03  0.3337E-01
    -18.509  0.1736E-02  0.3354E-01
    -18.407  0.6248E-02  0.3418E-01
    -18.306  0.1371E-01  0.3557E-01
    -18.204  0.1837E-01  0.3743E-01
    -18.103  0.1503E-01  0.3896E-01
    -18.001  0.7501E-02  0.3972E-01
    -17.900  0.2296E-02  0.3995E-01
    -17.798  0.5626E-03  0.4001E-01
    -17.697  0.1027E-02  0.4011E-01
    -17.595  0.4204E-02  0.4054E-01
    -17.494  0.1098E-01  0.4166E-01
    -17.392  0.1753E-01  0.4343E-01
    -17.291  0.1707E-01  0.4517E-01
    -17.189  0.1015E-01  0.4620E-01
    -17.088  0.3683E-02  0.4657E-01
    -16.986  0.8145E-03  0.4665E-01
    -16.885  0.1096E-03  0.4667E-01
    -16.783  0.8967E-05  0.4667E-01
    -16.682  0.4471E-06  0.4667E-01
    -16.580  0.1076E-06  0.4667E-01
    -16.479  0.2392E-05  0.4667E-01
    -16.377  0.3681E-04  0.4667E-01
    -16.276  0.3440E-03  0.4671E-01
    -16.174  0.1955E-02  0.4690E-01
    -16.073  0.6767E-02  0.4759E-01
    -15.971  0.1429E-01  0.4904E-01
    -15.870  0.1841E-01  0.5091E-01
    -15.768  0.1448E-01  0.5238E-01
    -15.667  0.6955E-02  0.5309E-01
    -15.565  0.2039E-02  0.5329E-01
    -15.464  0.4037E-03  0.5333E-01
    -15.362  0.4095E-03  0.5338E-01
    -15.261  0.2068E-02  0.5358E-01
    -15.159  0.7019E-02  0.5430E-01
    -15.058  0.1455E-01  0.5577E-01
    -14.956  0.1841E-01  0.5764E-01
    -14.855  0.1422E-01  0.5909E-01
    -14.753  0.6704E-02  0.5977E-01
    -14.652  0.1928E-02  0.5996E-01
    -14.550  0.3380E-03  0.6000E-01
    -14.449  0.4356E-04  0.6000E-01
    -14.347  0.9800E-04  0.6001E-01
    -14.246  0.7325E-03  0.6008E-01
    -14.144  0.3412E-02  0.6043E-01
    -14.043  0.9687E-02  0.6141E-01
    -13.941  0.1678E-01  0.6312E-01
    -13.840  0.1774E-01  0.6492E-01
    -13.738  0.1145E-01  0.6608E-01
    -13.637  0.4512E-02  0.6654E-01
    -13.535  0.1084E-02  0.6665E-01
    -13.434  0.1677E-03  0.6667E-01
    -13.332  0.1265E-03  0.6668E-01
    -13.231  0.8315E-03  0.6676E-01
    -13.129  0.3737E-02  0.6714E-01
    -13.028  0.1026E-01  0.6818E-01
    -12.926  0.1738E-01  0.6995E-01
    -12.825  0.1903E-01  0.7188E-01
    -12.723  0.1668E-01  0.7357E-01
    -12.622  0.1731E-01  0.7533E-01
    -12.520  0.1925E-01  0.7728E-01
    -12.419  0.1565E-01  0.7887E-01
    -12.317  0.8132E-02  0.7970E-01
    -12.216  0.3279E-02  0.8003E-01
    -12.114  0.3946E-02  0.8043E-01
    -12.013  0.9827E-02  0.8143E-01
    -11.911  0.1684E-01  0.8314E-01
    -11.810  0.1776E-01  0.8494E-01
    -11.708  0.1182E-01  0.8614E-01
    -11.607  0.6910E-02  0.8684E-01
    -11.505  0.9404E-02  0.8780E-01
    -11.404  0.1849E-01  0.8967E-01
    -11.302  0.2754E-01  0.9247E-01
    -11.201  0.2995E-01  0.9551E-01
    -11.099  0.2403E-01  0.9795E-01
    -10.998  0.1371E-01  0.9934E-01
    -10.896  0.5734E-02  0.9992E-01
    -10.795  0.4161E-02  0.1003E+00
    -10.693  0.9269E-02  0.1013E+00
    -10.592  0.1816E-01  0.1031E+00
    -10.490  0.2534E-01  0.1057E+00
    -10.389  0.2877E-01  0.1086E+00
    -10.287  0.3131E-01  0.1118E+00
    -10.186  0.3577E-01  0.1154E+00
    -10.084  0.4101E-01  0.1196E+00
     -9.983  0.4101E-01  0.1238E+00
     -9.881  0.3485E-01  0.1273E+00
     -9.780  0.2760E-01  0.1301E+00
     -9.678  0.2046E-01  0.1322E+00
     -9.577  0.1558E-01  0.1337E+00
     -9.475  0.1722E-01  0.1355E+00
     -9.374  0.2236E-01  0.1378E+00
     -9.272  0.2598E-01  0.1404E+00
     -9.171  0.2980E-01  0.1434E+00
     -9.069  0.3544E-01  0.1470E+00
     -8.968  0.3971E-01  0.1511E+00
     -8.866  0.3816E-01  0.1549E+00
     -8.765  0.2904E-01  0.1579E+00
     -8.663  0.1827E-01  0.1597E+00
     -8.562  0.1474E-01  0.1612E+00
     -8.460  0.1782E-01  0.1630E+00
     -8.359  0.1802E-01  0.1649E+00
     -8.257  0.1172E-01  0.1661E+00
     -8.156  0.4686E-02  0.1665E+00
     -8.054  0.1143E-02  0.1666E+00
     -7.953  0.1698E-03  0.1667E+00
     -7.851  0.1534E-04  0.1667E+00
     -7.750  0.8403E-06  0.1667E+00
     -7.648  0.2789E-07  0.1667E+00
     -7.547  0.5601E-09  0.1667E+00
     -7.445  0.2517E-10  0.1667E+00
     -7.344  0.1360E-08  0.1667E+00
     -7.242  0.6076E-07  0.1667E+00
     -7.141  0.1643E-05  0.1667E+00
     -7.039  0.2691E-04  0.1667E+00
     -6.938  0.2678E-03  0.1667E+00
     -6.836  0.1623E-02  0.1669E+00
     -6.735  0.6033E-02  0.1675E+00
     -6.633  0.1399E-01  0.1689E+00
     -6.532  0.2135E-01  0.1711E+00
     -6.430  0.2433E-01  0.1735E+00
     -6.329  0.2412E-01  0.1760E+00
     -6.227  0.2048E-01  0.1781E+00
     -6.126  0.1287E-01  0.1794E+00
     -6.024  0.6644E-02  0.1800E+00
     -5.923  0.7645E-02  0.1808E+00
     -5.821  0.1672E-01  0.1825E+00
     -5.720  0.2827E-01  0.1854E+00
     -5.618  0.3269E-01  0.1887E+00
     -5.517  0.2585E-01  0.1913E+00
     -5.415  0.1377E-01  0.1927E+00
     -5.314  0.4806E-02  0.1932E+00
     -5.212  0.1070E-02  0.1933E+00
     -5.111  0.1488E-03  0.1933E+00
     -5.009  0.1275E-04  0.1933E+00
     -4.908  0.6680E-06  0.1933E+00
     -4.806  0.2127E-07  0.1933E+00
     -4.705  0.4105E-09  0.1933E+00
     -4.603  0.4786E-11  0.1933E+00
     -4.502  0.3366E-13  0.1933E+00
     -4.400  0.1458E-15  0.1933E+00
     -4.299  0.0000E+00  0.1933E+00
     -4.197  0.0000E+00  0.1933E+00
     -4.096  0.0000E+00  0.1933E+00
     -3.994  0.0000E+00  0.1933E+00
     -3.893  0.0000E+00  0.1933E+00
     -3.791  0.0000E+00  0.1933E+00
     -3.690  0.0000E+00  0.1933E+00
     -3.588  0.0000E+00  0.1933E+00
     -3.487  0.0000E+00  0.1933E+00
     -3.385  0.0000E+00  0.1933E+00
     -3.284  0.0000E+00  0.1933E+00
     -3.182  0.0000E+00  0.1933E+00
     -3.081  0.0000E+00  0.1933E+00
     -2.979  0.0000E+00  0.1933E+00
     -2.878  0.0000E+00  0.1933E+00
     -2.776  0.0000E+00  0.1933E+00
     -2.675  0.0000E+00  0.1933E+00
     -2.573  0.0000E+00  0.1933E+00
     -2.472  0.0000E+00  0.1933E+00
     -2.370  0.0000E+00  0.1933E+00
     -2.269  0.1495E-15  0.1933E+00
     -2.167  0.3491E-13  0.1933E+00
     -2.066  0.4943E-11  0.1933E+00
     -1.964  0.4221E-09  0.1933E+00
     -1.863  0.2178E-07  0.1933E+00
     -1.761  0.6799E-06  0.1933E+00
     -1.660  0.1288E-04  0.1933E+00
     -1.558  0.1488E-03  0.1933E+00
     -1.457  0.1055E-02  0.1935E+00
     -1.355  0.4653E-02  0.1939E+00
     -1.254  0.1306E-01  0.1953E+00
     -1.152  0.2422E-01  0.1977E+00
     -1.051  0.3107E-01  0.2009E+00
     -0.949  0.2840E-01  0.2037E+00
     -0.848  0.1852E-01  0.2056E+00
     -0.746  0.9620E-02  0.2066E+00
     -0.645  0.8487E-02  0.2075E+00
     -0.543  0.1479E-01  0.2090E+00
     -0.442  0.2261E-01  0.2113E+00
     -0.340  0.3009E-01  0.2143E+00
     -0.239  0.4354E-01  0.2187E+00
     -0.137  0.6443E-01  0.2253E+00
     -0.036  0.8730E-01  0.2341E+00
      0.066  0.1086E+00  0.2452E+00
      0.167  0.1156E+00  0.2569E+00
      0.269  0.9155E-01  0.2662E+00
      0.370  0.4907E-01  0.2712E+00
      0.472  0.1702E-01  0.2729E+00
      0.573  0.3746E-02  0.2733E+00
      0.675  0.5172E-03  0.2733E+00
      0.776  0.4445E-04  0.2733E+00
      0.878  0.2364E-05  0.2733E+00
      0.979  0.7736E-07  0.2733E+00
      1.081  0.1551E-08  0.2733E+00
      1.182  0.1898E-10  0.2733E+00
      1.284  0.1412E-12  0.2733E+00
      1.385  0.6362E-15  0.2733E+00
      1.487  0.0000E+00  0.2733E+00
      1.588  0.0000E+00  0.2733E+00
      1.690  0.0000E+00  0.2733E+00
      1.791  0.0000E+00  0.2733E+00
      1.893  0.0000E+00  0.2733E+00
      1.994  0.0000E+00  0.2733E+00
      2.096  0.0000E+00  0.2733E+00
      2.197  0.0000E+00  0.2733E+00
