   22   22  300    1
  0.1227273E+04  0.3000000E-08  0.3000000E-08  0.3000000E-08  0.0000000E+00
  1.000000000000000E-004
  CAR 
 unknown system                          
     58      4     41
 
  0.2500000E+00  0.2500000E+00  0.2500000E+00  0.2500000E+00
    1      -26.252882   1.000000
    2      -25.538496   1.000000
    3      -23.517981   1.000000
    4      -22.623159   1.000000
    5      -19.683660   1.000000
    6      -18.245644   1.000000
    7      -17.397668   1.000000
    8      -15.919102   1.000000
    9      -15.009354   1.000000
   10      -13.929744   1.000000
   11      -12.921966   1.000000
   12      -12.554199   1.000000
   13      -11.900819   1.000000
   14      -11.365037   1.000000
   15      -11.182532   1.000000
   16      -10.567319   1.000000
   17      -10.339347   1.000000
   18      -10.114761   1.000000
   19      -10.036235   1.000000
   20       -9.798527   1.000000
   21       -9.410534   1.000000
   22       -9.154479   1.000000
   23       -8.983321   1.000000
   24       -8.852932   1.000000
   25       -8.445426   1.000000
   26       -6.568345   1.000000
   27       -6.307996   1.000000
   28       -5.750390   1.000000
   29       -5.610997   1.000000
   30       -1.159979   0.000000
   31       -0.995940   0.000000
   32       -0.481926   0.000000
   33       -0.217878   0.000000
   34       -0.126475   0.000000
   35       -0.093234   0.000000
   36        0.035731   0.000000
   37        0.105100   0.000000
   38        0.131619   0.000000
   39        0.134886   0.000000
   40        0.171014   0.000000
   41        0.196832   0.000000
 
 -0.2500000E+00  0.2500000E+00  0.2500000E+00  0.2500000E+00
    1      -26.252883   1.000000
    2      -25.538494   1.000000
    3      -23.517981   1.000000
    4      -22.623157   1.000000
    5      -19.683662   1.000000
    6      -18.245643   1.000000
    7      -17.397668   1.000000
    8      -15.919102   1.000000
    9      -15.009357   1.000000
   10      -13.929753   1.000000
   11      -12.921963   1.000000
   12      -12.554195   1.000000
   13      -11.900820   1.000000
   14      -11.365040   1.000000
   15      -11.182529   1.000000
   16      -10.567320   1.000000
   17      -10.339353   1.000000
   18      -10.114764   1.000000
   19      -10.036238   1.000000
   20       -9.798525   1.000000
   21       -9.410521   1.000000
   22       -9.154488   1.000000
   23       -8.983312   1.000000
   24       -8.852923   1.000000
   25       -8.445434   1.000000
   26       -6.568345   1.000000
   27       -6.307991   1.000000
   28       -5.750396   1.000000
   29       -5.610986   1.000000
   30       -1.159980   0.000000
   31       -0.995944   0.000000
   32       -0.481927   0.000000
   33       -0.217855   0.000000
   34       -0.126696   0.000000
   35       -0.092947   0.000000
   36        0.037207   0.000000
   37        0.098586   0.000000
   38        0.123417   0.000000
   39        0.141382   0.000000
   40        0.185686   0.000000
   41        0.197430   0.000000
 
  0.2500000E+00 -0.2500000E+00  0.2500000E+00  0.2500000E+00
    1      -26.252882   1.000000
    2      -25.538491   1.000000
    3      -23.517981   1.000000
    4      -22.623158   1.000000
    5      -19.683661   1.000000
    6      -18.245644   1.000000
    7      -17.397667   1.000000
    8      -15.919100   1.000000
    9      -15.009353   1.000000
   10      -13.929758   1.000000
   11      -12.921962   1.000000
   12      -12.554197   1.000000
   13      -11.900809   1.000000
   14      -11.365037   1.000000
   15      -11.182535   1.000000
   16      -10.567319   1.000000
   17      -10.339345   1.000000
   18      -10.114762   1.000000
   19      -10.036236   1.000000
   20       -9.798520   1.000000
   21       -9.410536   1.000000
   22       -9.154478   1.000000
   23       -8.983312   1.000000
   24       -8.852930   1.000000
   25       -8.445425   1.000000
   26       -6.568347   1.000000
   27       -6.307999   1.000000
   28       -5.750396   1.000000
   29       -5.610982   1.000000
   30       -1.159980   0.000000
   31       -0.995940   0.000000
   32       -0.481924   0.000000
   33       -0.217858   0.000000
   34       -0.126474   0.000000
   35       -0.093257   0.000000
   36        0.035463   0.000000
   37        0.105359   0.000000
   38        0.121099   0.000000
   39        0.142347   0.000000
   40        0.182054   0.000000
   41        0.192895   0.000000
 
 -0.2500000E+00 -0.2500000E+00  0.2500000E+00  0.2500000E+00
    1      -26.252883   1.000000
    2      -25.538492   1.000000
    3      -23.517979   1.000000
    4      -22.623160   1.000000
    5      -19.683661   1.000000
    6      -18.245644   1.000000
    7      -17.397668   1.000000
    8      -15.919104   1.000000
    9      -15.009351   1.000000
   10      -13.929743   1.000000
   11      -12.921965   1.000000
   12      -12.554197   1.000000
   13      -11.900819   1.000000
   14      -11.365042   1.000000
   15      -11.182534   1.000000
   16      -10.567326   1.000000
   17      -10.339347   1.000000
   18      -10.114758   1.000000
   19      -10.036232   1.000000
   20       -9.798529   1.000000
   21       -9.410525   1.000000
   22       -9.154470   1.000000
   23       -8.983311   1.000000
   24       -8.852925   1.000000
   25       -8.445424   1.000000
   26       -6.568363   1.000000
   27       -6.307991   1.000000
   28       -5.750398   1.000000
   29       -5.610987   1.000000
   30       -1.159975   0.000000
   31       -0.995941   0.000000
   32       -0.481926   0.000000
   33       -0.217905   0.000000
   34       -0.126454   0.000000
   35       -0.092970   0.000000
   36        0.033581   0.000000
   37        0.109543   0.000000
   38        0.132006   0.000000
   39        0.136324   0.000000
   40        0.164872   0.000000
   41        0.190221   0.000000
