       N       E                     dE             d eps       ncg     rms          rms(c)
DAV:   1     0.613205842562E+03    0.61321E+03   -0.79988E+03   392   0.485E+02
DAV:   2     0.270002949302E+03   -0.34320E+03   -0.33296E+03   586   0.916E+01
DAV:   3    -0.443951199670E+02   -0.31440E+03   -0.30537E+03   496   0.111E+02
DAV:   4    -0.136236415989E+03   -0.91841E+02   -0.91693E+02   396   0.807E+01
DAV:   5    -0.141602752114E+03   -0.53663E+01   -0.53556E+01   464   0.227E+01    0.197E+01
DAV:   6    -0.131271235869E+03    0.10332E+02   -0.23782E+01   413   0.197E+01    0.100E+01
DAV:   7    -0.129437847600E+03    0.18334E+01   -0.45365E+00   416   0.832E+00    0.514E+00
DAV:   8    -0.128946728955E+03    0.49112E+00   -0.85761E-01   448   0.404E+00    0.146E+00
DAV:   9    -0.128881572698E+03    0.65156E-01   -0.90503E-02   464   0.149E+00    0.552E-01
DAV:  10    -0.128869297642E+03    0.12275E-01   -0.21576E-02   444   0.772E-01    0.254E-01
DAV:  11    -0.128863686537E+03    0.56111E-02   -0.73289E-03   448   0.442E-01    0.159E-01
DAV:  12    -0.128863784657E+03   -0.98119E-04   -0.54479E-03   434   0.360E-01    0.959E-02
DAV:  13    -0.128869965447E+03   -0.61808E-02   -0.37962E-03   432   0.312E-01    0.587E-02
DAV:  14    -0.128876975365E+03   -0.70099E-02   -0.19149E-03   422   0.218E-01    0.370E-02
DAV:  15    -0.128884700425E+03   -0.77251E-02   -0.88684E-04   378   0.116E-01    0.244E-02
DAV:  16    -0.128890580439E+03   -0.58800E-02   -0.45975E-04   382   0.673E-02    0.132E-02
DAV:  17    -0.128893040265E+03   -0.24598E-02   -0.11534E-04   314   0.352E-02    0.863E-03
DAV:  18    -0.128894902900E+03   -0.18626E-02   -0.12648E-04   334   0.310E-02    0.528E-03
DAV:  19    -0.128895808266E+03   -0.90537E-03   -0.53645E-05   354   0.198E-02    0.306E-03
DAV:  20    -0.128896195769E+03   -0.38750E-03   -0.14911E-05   352   0.129E-02    0.191E-03
DAV:  21    -0.128896359528E+03   -0.16376E-03   -0.64152E-06   318   0.729E-03    0.122E-03
DAV:  22    -0.128896504420E+03   -0.14489E-03   -0.35253E-06   287   0.611E-03    0.903E-04
DAV:  23    -0.128896544918E+03   -0.40498E-04   -0.87640E-07   368   0.319E-03
   1 F= -.12889654E+03 E0= -.12889654E+03  d E =-.128897E+03
       N       E                     dE             d eps       ncg     rms          rms(c)
DAV:   1    -0.128906133670E+03   -0.96293E-02   -0.20634E-01   342   0.239E+00    0.113E-01
DAV:   2    -0.128906455382E+03   -0.32171E-03   -0.53646E-03   464   0.352E-01    0.718E-02
DAV:   3    -0.128906397666E+03    0.57716E-04   -0.19822E-04   368   0.830E-02    0.427E-02
DAV:   4    -0.128906410895E+03   -0.13228E-04   -0.18510E-04   335   0.728E-02    0.121E-02
DAV:   5    -0.128906416240E+03   -0.53446E-05   -0.39163E-05   336   0.337E-02    0.658E-03
DAV:   6    -0.128906418700E+03   -0.24605E-05   -0.52041E-06   208   0.125E-02
   2 F= -.12890642E+03 E0= -.12890642E+03  d E =-.987378E-02
       N       E                     dE             d eps       ncg     rms          rms(c)
DAV:   1    -0.128920531836E+03   -0.14116E-01   -0.55628E-01   330   0.385E+00    0.181E-01
DAV:   2    -0.128921286936E+03   -0.75510E-03   -0.12982E-02   348   0.535E-01    0.113E-01
DAV:   3    -0.128921173532E+03    0.11340E-03   -0.56636E-04   447   0.133E-01    0.661E-02
DAV:   4    -0.128921210622E+03   -0.37090E-04   -0.29744E-04   398   0.915E-02    0.197E-02
DAV:   5    -0.128921219157E+03   -0.85350E-05   -0.56913E-05   320   0.403E-02    0.946E-03
DAV:   6    -0.128921222435E+03   -0.32780E-05   -0.82861E-06   236   0.159E-02
   3 F= -.12892122E+03 E0= -.12892122E+03  d E =-.148037E-01
       N       E                     dE             d eps       ncg     rms          rms(c)
DAV:   1    -0.128940262483E+03   -0.19043E-01   -0.10007E+00   329   0.514E+00    0.230E-01
DAV:   2    -0.128941635596E+03   -0.13731E-02   -0.21407E-02   397   0.660E-01    0.147E-01
DAV:   3    -0.128941472907E+03    0.16269E-03   -0.90253E-04   428   0.166E-01    0.825E-02
DAV:   4    -0.128941569786E+03   -0.96879E-04   -0.40647E-04   439   0.102E-01    0.242E-02
DAV:   5    -0.128941588710E+03   -0.18925E-04   -0.54199E-05   336   0.388E-02    0.106E-02
DAV:   6    -0.128941596924E+03   -0.82137E-05   -0.95941E-06   302   0.164E-02
   4 F= -.12894160E+03 E0= -.12894160E+03  d E =-.203745E-01
       N       E                     dE             d eps       ncg     rms          rms(c)
DAV:   1    -0.128961788919E+03   -0.20200E-01   -0.16474E+00   332   0.666E+00    0.285E-01
DAV:   2    -0.128964230919E+03   -0.24420E-02   -0.35020E-02   397   0.849E-01    0.186E-01
DAV:   3    -0.128963991115E+03    0.23980E-03   -0.13288E-03   438   0.205E-01    0.105E-01
DAV:   4    -0.128964148213E+03   -0.15710E-03   -0.63313E-04   431   0.130E-01    0.284E-02
DAV:   5    -0.128964175929E+03   -0.27716E-04   -0.85088E-05   336   0.486E-02    0.134E-02
DAV:   6    -0.128964186619E+03   -0.10690E-04   -0.14722E-05   334   0.201E-02
   5 F= -.12896419E+03 E0= -.12896419E+03  d E =-.225897E-01
       N       E                     dE             d eps       ncg     rms          rms(c)
DAV:   1    -0.128983202332E+03   -0.19026E-01   -0.21319E+00   332   0.757E+00    0.324E-01
DAV:   2    -0.128986527271E+03   -0.33249E-02   -0.46614E-02   396   0.976E-01    0.210E-01
DAV:   3    -0.128986222087E+03    0.30518E-03   -0.15934E-03   421   0.226E-01    0.120E-01
DAV:   4    -0.128986473052E+03   -0.25097E-03   -0.82635E-04   431   0.152E-01    0.298E-02
DAV:   5    -0.128986505767E+03   -0.32714E-04   -0.11983E-04   328   0.571E-02    0.151E-02
DAV:   6    -0.128986520370E+03   -0.14604E-04   -0.18700E-05   310   0.230E-02
   6 F= -.12898652E+03 E0= -.12898652E+03  d E =-.223338E-01
       N       E                     dE             d eps       ncg     rms          rms(c)
DAV:   1    -0.129004802041E+03   -0.18296E-01   -0.26434E+00   328   0.843E+00    0.365E-01
DAV:   2    -0.129009089403E+03   -0.42874E-02   -0.60050E-02   396   0.112E+00    0.234E-01
DAV:   3    -0.129008707935E+03    0.38147E-03   -0.19321E-03   428   0.249E-01    0.136E-01
DAV:   4    -0.129009025241E+03   -0.31731E-03   -0.10769E-03   431   0.180E-01    0.329E-02
DAV:   5    -0.129009066597E+03   -0.41355E-04   -0.18536E-04   336   0.707E-02    0.180E-02
DAV:   6    -0.129009083018E+03   -0.16421E-04   -0.21502E-05   350   0.246E-02
   7 F= -.12900908E+03 E0= -.12900908E+03  d E =-.225626E-01
       N       E                     dE             d eps       ncg     rms          rms(c)
DAV:   1    -0.129024744813E+03   -0.15678E-01   -0.38717E+00   328   0.102E+01    0.427E-01
DAV:   2    -0.129030984453E+03   -0.62396E-02   -0.83571E-02   397   0.132E+00    0.275E-01
DAV:   3    -0.129030509028E+03    0.47542E-03   -0.24305E-03   428   0.279E-01    0.158E-01
DAV:   4    -0.129030914300E+03   -0.40527E-03   -0.13595E-03   432   0.203E-01    0.336E-02
DAV:   5    -0.129030972582E+03   -0.58282E-04   -0.22427E-04   368   0.772E-02    0.205E-02
DAV:   6    -0.129030994082E+03   -0.21500E-04   -0.24319E-05   334   0.272E-02
   8 F= -.12903099E+03 E0= -.12903099E+03  d E =-.219111E-01
       N       E                     dE             d eps       ncg     rms          rms(c)
DAV:   1    -0.129042051788E+03   -0.11079E-01   -0.59443E+00   328   0.126E+01    0.491E-01
DAV:   2    -0.129051791551E+03   -0.97398E-02   -0.12317E-01   397   0.159E+00    0.325E-01
DAV:   3    -0.129051168497E+03    0.62305E-03   -0.31238E-03   429   0.315E-01    0.187E-01
DAV:   4    -0.129051702436E+03   -0.53394E-03   -0.17641E-03   416   0.230E-01    0.363E-02
DAV:   5    -0.129051792206E+03   -0.89770E-04   -0.28009E-04   400   0.839E-02    0.240E-02
DAV:   6    -0.129051822766E+03   -0.30560E-04   -0.24310E-05   326   0.290E-02
   9 F= -.12905182E+03 E0= -.12905182E+03  d E =-.208287E-01
       N       E                     dE             d eps       ncg     rms          rms(c)
DAV:   1    -0.129055248807E+03   -0.34566E-02   -0.87955E+00   328   0.152E+01    0.588E-01
DAV:   2    -0.129069915147E+03   -0.14666E-01   -0.18508E-01   397   0.193E+00    0.391E-01
DAV:   3    -0.129068999018E+03    0.91613E-03   -0.42845E-03   429   0.367E-01    0.229E-01
DAV:   4    -0.129069806276E+03   -0.80726E-03   -0.26504E-03   407   0.282E-01    0.435E-02
DAV:   5    -0.129069913087E+03   -0.10681E-03   -0.45836E-04   432   0.106E-01    0.297E-02
DAV:   6    -0.129069946261E+03   -0.33174E-04   -0.25029E-05   334   0.302E-02
  10 F= -.12906995E+03 E0= -.12906995E+03  d E =-.181235E-01
       N       E                     dE             d eps       ncg     rms          rms(c)
DAV:   1    -0.129067906558E+03    0.20065E-02   -0.12023E+01   328   0.177E+01    0.683E-01
DAV:   2    -0.129087145000E+03   -0.19238E-01   -0.24820E-01   365   0.225E+00    0.450E-01
DAV:   3    -0.129086222066E+03    0.92293E-03   -0.66034E-03   446   0.419E-01    0.267E-01
DAV:   4    -0.129087229210E+03   -0.10071E-02   -0.36055E-03   431   0.335E-01    0.481E-02
DAV:   5    -0.129087346306E+03   -0.11710E-03   -0.71814E-04   456   0.133E-01    0.345E-02
DAV:   6    -0.129087375866E+03   -0.29560E-04   -0.32838E-05   366   0.329E-02
  11 F= -.12908738E+03 E0= -.12908738E+03  d E =-.174296E-01
       N       E                     dE             d eps       ncg     rms          rms(c)
DAV:   1    -0.129082269644E+03    0.50767E-02   -0.14652E+01   328   0.194E+01    0.722E-01
DAV:   2    -0.129104685895E+03   -0.22416E-01   -0.28626E-01   348   0.239E+00    0.484E-01
DAV:   3    -0.129103637311E+03    0.10486E-02   -0.80607E-03   463   0.440E-01    0.283E-01
DAV:   4    -0.129104689284E+03   -0.10520E-02   -0.36184E-03   415   0.335E-01    0.540E-02
DAV:   5    -0.129104838061E+03   -0.14878E-03   -0.74170E-04   456   0.134E-01    0.371E-02
DAV:   6    -0.129104877643E+03   -0.39582E-04   -0.45320E-05   310   0.392E-02
  12 F= -.12910488E+03 E0= -.12910488E+03  d E =-.175018E-01
       N       E                     dE             d eps       ncg     rms          rms(c)
DAV:   1    -0.129107882281E+03   -0.30442E-02   -0.84743E-02   332   0.144E+00    0.703E-02
DAV:   2    -0.129108030345E+03   -0.14806E-03   -0.22647E-03   461   0.215E-01    0.461E-02
DAV:   3    -0.129108026399E+03    0.39465E-05   -0.87605E-05   368   0.506E-02    0.291E-02
DAV:   4    -0.129108057089E+03   -0.30690E-04   -0.76771E-05   296   0.449E-02    0.751E-03
DAV:   5    -0.129108070329E+03   -0.13240E-04   -0.19153E-05   368   0.222E-02    0.460E-03
DAV:   6    -0.129108080354E+03   -0.10026E-04   -0.30591E-06   278   0.888E-03
  13 F= -.12910808E+03 E0= -.12910808E+03  d E =-.320271E-02
       N       E                     dE             d eps       ncg     rms          rms(c)
DAV:   1    -0.129109950448E+03   -0.18801E-02   -0.17005E-01   334   0.209E+00    0.963E-02
DAV:   2    -0.129110199333E+03   -0.24888E-03   -0.41965E-03   438   0.298E-01    0.629E-02
DAV:   3    -0.129110168604E+03    0.30729E-04   -0.18194E-04   432   0.727E-02    0.394E-02
DAV:   4    -0.129110175875E+03   -0.72711E-05   -0.91792E-05   299   0.506E-02    0.126E-02
DAV:   5    -0.129110181219E+03   -0.53445E-05   -0.27432E-05   304   0.280E-02    0.546E-03
DAV:   6    -0.129110184606E+03   -0.33869E-05   -0.54786E-06   224   0.116E-02
  14 F= -.12911018E+03 E0= -.12911018E+03  d E =-.210425E-02
       N       E                     dE             d eps       ncg     rms          rms(c)
DAV:   1    -0.129112408281E+03   -0.22271E-02   -0.12730E-01   335   0.188E+00    0.797E-02
DAV:   2    -0.129112605038E+03   -0.19676E-03   -0.26900E-03   424   0.241E-01    0.523E-02
DAV:   3    -0.129112591315E+03    0.13723E-04   -0.10888E-04   304   0.609E-02    0.309E-02
DAV:   4    -0.129112611102E+03   -0.19787E-04   -0.71635E-05   298   0.443E-02    0.856E-03
DAV:   5    -0.129112613930E+03   -0.28278E-05   -0.14839E-05   272   0.212E-02    0.410E-03
DAV:   6    -0.129112615468E+03   -0.15375E-05   -0.27945E-06   270   0.849E-03
  15 F= -.12911262E+03 E0= -.12911262E+03  d E =-.243086E-02
       N       E                     dE             d eps       ncg     rms          rms(c)
DAV:   1    -0.129117216825E+03   -0.46029E-02   -0.17927E-01   333   0.223E+00    0.104E-01
DAV:   2    -0.129117505969E+03   -0.28914E-03   -0.46046E-03   388   0.314E-01    0.670E-02
DAV:   3    -0.129117474140E+03    0.31829E-04   -0.18939E-04   352   0.777E-02    0.406E-02
DAV:   4    -0.129117501827E+03   -0.27686E-04   -0.15985E-04   297   0.656E-02    0.127E-02
DAV:   5    -0.129117500515E+03    0.13119E-05   -0.35439E-05   272   0.331E-02    0.593E-03
DAV:   6    -0.129117501443E+03   -0.92812E-06   -0.63436E-06   320   0.124E-02
  16 F= -.12911750E+03 E0= -.12911750E+03  d E =-.488598E-02
       N       E                     dE             d eps       ncg     rms          rms(c)
DAV:   1    -0.129121665244E+03   -0.41647E-02   -0.30555E-01   336   0.288E+00    0.137E-01
DAV:   2    -0.129122148731E+03   -0.48349E-03   -0.83067E-03   430   0.422E-01    0.866E-02
DAV:   3    -0.129122092883E+03    0.55848E-04   -0.36506E-04   431   0.103E-01    0.530E-02
DAV:   4    -0.129122128477E+03   -0.35594E-04   -0.18975E-04   375   0.715E-02    0.159E-02
DAV:   5    -0.129122130206E+03   -0.17286E-05   -0.38260E-05   272   0.336E-02    0.735E-03
DAV:   6    -0.129122132202E+03   -0.19961E-05   -0.83327E-06   336   0.140E-02
  17 F= -.12912213E+03 E0= -.12912213E+03  d E =-.463076E-02
       N       E                     dE             d eps       ncg     rms          rms(c)
DAV:   1    -0.129125508759E+03   -0.33786E-02   -0.34909E-01   332   0.309E+00    0.136E-01
DAV:   2    -0.129126056016E+03   -0.54726E-03   -0.83085E-03   399   0.419E-01    0.849E-02
DAV:   3    -0.129126024491E+03    0.31526E-04   -0.28950E-04   333   0.968E-02    0.513E-02
DAV:   4    -0.129126087130E+03   -0.62639E-04   -0.21167E-04   325   0.764E-02    0.145E-02
DAV:   5    -0.129126089618E+03   -0.24886E-05   -0.46577E-05   272   0.378E-02    0.670E-03
DAV:   6    -0.129126092429E+03   -0.28107E-05   -0.83298E-06   238   0.141E-02
  18 F= -.12912609E+03 E0= -.12912609E+03  d E =-.396023E-02
       N       E                     dE             d eps       ncg     rms          rms(c)
DAV:   1    -0.129130888417E+03   -0.47988E-02   -0.53196E-01   328   0.378E+00    0.150E-01
DAV:   2    -0.129131643521E+03   -0.75510E-03   -0.10705E-02   396   0.471E-01    0.947E-02
DAV:   3    -0.129131628205E+03    0.15316E-04   -0.31191E-04   333   0.102E-01    0.550E-02
DAV:   4    -0.129131718453E+03   -0.90248E-04   -0.21342E-04   347   0.763E-02    0.131E-02
DAV:   5    -0.129131722695E+03   -0.42424E-05   -0.37880E-05   272   0.336E-02    0.675E-03
DAV:   6    -0.129131725566E+03   -0.28708E-05   -0.72115E-06   284   0.131E-02
  19 F= -.12913173E+03 E0= -.12913173E+03  d E =-.563314E-02
       N       E                     dE             d eps       ncg     rms          rms(c)
DAV:   1    -0.129135821400E+03   -0.40987E-02   -0.88176E-01   328   0.483E+00    0.187E-01
DAV:   2    -0.129137089929E+03   -0.12685E-02   -0.17049E-02   405   0.592E-01    0.122E-01
DAV:   3    -0.129137057241E+03    0.32688E-04   -0.57459E-04   438   0.133E-01    0.714E-02
DAV:   4    -0.129137177929E+03   -0.12069E-03   -0.22596E-04   414   0.802E-02    0.183E-02
DAV:   5    -0.129137197000E+03   -0.19072E-04   -0.35289E-05   272   0.318E-02    0.840E-03
DAV:   6    -0.129137200200E+03   -0.32002E-05   -0.65505E-06   248   0.132E-02
  20 F= -.12913720E+03 E0= -.12913720E+03  d E =-.547463E-02
       N       E                     dE             d eps       ncg     rms          rms(c)
DAV:   1    -0.129141330725E+03   -0.41337E-02   -0.11306E+00   328   0.544E+00    0.213E-01
DAV:   2    -0.129142941181E+03   -0.16105E-02   -0.22394E-02   348   0.675E-01    0.139E-01
DAV:   3    -0.129142931071E+03    0.10109E-04   -0.86912E-04   444   0.152E-01    0.821E-02
DAV:   4    -0.129143109598E+03   -0.17853E-03   -0.44316E-04   429   0.111E-01    0.234E-02
DAV:   5    -0.129143111810E+03   -0.22116E-05   -0.87075E-05   272   0.514E-02    0.117E-02
DAV:   6    -0.129143116964E+03   -0.51539E-05   -0.23372E-05   288   0.224E-02
  21 F= -.12914312E+03 E0= -.12914312E+03  d E =-.591676E-02
       N       E                     dE             d eps       ncg     rms          rms(c)
DAV:   1    -0.129146542787E+03   -0.34310E-02   -0.17508E+00   328   0.675E+00    0.275E-01
DAV:   2    -0.129149224503E+03   -0.26817E-02   -0.38463E-02   405   0.887E-01    0.174E-01
DAV:   3    -0.129149131054E+03    0.93449E-04   -0.11466E-03   452   0.186E-01    0.105E-01
DAV:   4    -0.129149363351E+03   -0.23230E-03   -0.66897E-04   428   0.136E-01    0.283E-02
DAV:   5    -0.129149378256E+03   -0.14905E-04   -0.12794E-04   367   0.586E-02    0.135E-02
DAV:   6    -0.129149383050E+03   -0.47943E-05   -0.13516E-05   254   0.186E-02
  22 F= -.12914938E+03 E0= -.12914938E+03  d E =-.626609E-02
       N       E                     dE             d eps       ncg     rms          rms(c)
DAV:   1    -0.129153074218E+03   -0.36960E-02   -0.22660E+00   328   0.757E+00    0.289E-01
DAV:   2    -0.129156179762E+03   -0.31055E-02   -0.41917E-02   365   0.915E-01    0.188E-01
DAV:   3    -0.129156187305E+03   -0.75436E-05   -0.14466E-03   420   0.189E-01    0.111E-01
DAV:   4    -0.129156428876E+03   -0.24157E-03   -0.67304E-04   428   0.137E-01    0.271E-02
DAV:   5    -0.129156443941E+03   -0.15066E-04   -0.13425E-04   328   0.613E-02    0.144E-02
DAV:   6    -0.129156449585E+03   -0.56438E-05   -0.14887E-05   254   0.199E-02
  23 F= -.12915645E+03 E0= -.12915645E+03  d E =-.706653E-02
       N       E                     dE             d eps       ncg     rms          rms(c)
DAV:   1    -0.129158180167E+03   -0.17362E-02   -0.31078E+00   328   0.883E+00    0.348E-01
DAV:   2    -0.129162552177E+03   -0.43720E-02   -0.57922E-02   364   0.107E+00    0.227E-01
DAV:   3    -0.129162540329E+03    0.11848E-04   -0.20543E-03   428   0.224E-01    0.138E-01
DAV:   4    -0.129162825771E+03   -0.28544E-03   -0.81995E-04   429   0.151E-01    0.338E-02
DAV:   5    -0.129162863770E+03   -0.37999E-04   -0.14409E-04   400   0.620E-02    0.160E-02
DAV:   6    -0.129162870364E+03   -0.65939E-05   -0.14483E-05   272   0.198E-02
  24 F= -.12916287E+03 E0= -.12916287E+03  d E =-.642078E-02
       N       E                     dE             d eps       ncg     rms          rms(c)
DAV:   1    -0.129163536650E+03   -0.67288E-03   -0.41695E+00   328   0.103E+01    0.416E-01
DAV:   2    -0.129170225319E+03   -0.66887E-02   -0.90267E-02   414   0.135E+00    0.266E-01
DAV:   3    -0.129169963451E+03    0.26187E-03   -0.21945E-03   428   0.253E-01    0.157E-01
DAV:   4    -0.129170301951E+03   -0.33850E-03   -0.13652E-03   428   0.192E-01    0.363E-02
DAV:   5    -0.129170330086E+03   -0.28135E-04   -0.24042E-04   400   0.803E-02    0.187E-02
DAV:   6    -0.129170336909E+03   -0.68228E-05   -0.24169E-05   272   0.250E-02
  25 F= -.12917034E+03 E0= -.12917034E+03  d E =-.746654E-02
       N       E                     dE             d eps       ncg     rms          rms(c)
DAV:   1    -0.129165069785E+03    0.52603E-02   -0.53862E+00   328   0.119E+01    0.513E-01
DAV:   2    -0.129175032709E+03   -0.99629E-02   -0.12843E-01   363   0.160E+00    0.337E-01
DAV:   3    -0.129174332986E+03    0.69972E-03   -0.33119E-03   464   0.303E-01    0.211E-01
DAV:   4    -0.129174485106E+03   -0.15212E-03   -0.16042E-03   402   0.211E-01    0.509E-02
DAV:   5    -0.129174552854E+03   -0.67748E-04   -0.30003E-04   464   0.842E-02    0.233E-02
DAV:   6    -0.129174564375E+03   -0.11522E-04   -0.17045E-05   352   0.231E-02
  26 F= -.12917456E+03 E0= -.12917456E+03  d E =-.422747E-02
       N       E                     dE             d eps       ncg     rms          rms(c)
DAV:   1    -0.129180324721E+03   -0.57719E-02   -0.42102E-01   336   0.333E+00    0.228E-01
DAV:   2    -0.129181692241E+03   -0.13675E-02   -0.18750E-02   395   0.610E-01    0.125E-01
DAV:   3    -0.129181497386E+03    0.19486E-03   -0.53948E-04   437   0.126E-01    0.703E-02
DAV:   4    -0.129181407021E+03    0.90364E-04   -0.31084E-04   361   0.926E-02    0.167E-02
DAV:   5    -0.129181401883E+03    0.51382E-05   -0.60182E-05   360   0.398E-02    0.895E-03
DAV:   6    -0.129181402861E+03   -0.97798E-06   -0.81326E-06   352   0.151E-02
  27 F= -.12918140E+03 E0= -.12918140E+03  d E =-.683849E-02
       N       E                     dE             d eps       ncg     rms          rms(c)
DAV:   1    -0.129176107106E+03    0.52948E-02   -0.40268E-01   334   0.327E+00    0.218E-01
DAV:   2    -0.129177319897E+03   -0.12128E-02   -0.17658E-02   464   0.594E-01    0.124E-01
DAV:   3    -0.129177062137E+03    0.25776E-03   -0.52764E-04   464   0.124E-01    0.681E-02
DAV:   4    -0.129176931112E+03    0.13103E-03   -0.28338E-04   398   0.894E-02    0.169E-02
DAV:   5    -0.129176925067E+03    0.60449E-05   -0.56757E-05   368   0.397E-02    0.895E-03
DAV:   6    -0.129176938284E+03   -0.13217E-04   -0.84552E-06   302   0.161E-02
  28 F= -.12917694E+03 E0= -.12917694E+03  d E =0.446458E-02
       N       E                     dE             d eps       ncg     rms          rms(c)
DAV:   1    -0.129179375947E+03   -0.24509E-02   -0.24042E-02   365   0.796E-01    0.557E-02
DAV:   2    -0.129179477994E+03   -0.10205E-03   -0.10766E-03   446   0.146E-01    0.299E-02
DAV:   3    -0.129179487051E+03   -0.90566E-05   -0.27375E-05   316   0.302E-02    0.166E-02
DAV:   4    -0.129179512916E+03   -0.25865E-04   -0.23865E-05   331   0.254E-02    0.323E-03
DAV:   5    -0.129179524667E+03   -0.11751E-04   -0.50263E-06   368   0.111E-02    0.190E-03
DAV:   6    -0.129179532025E+03   -0.73581E-05   -0.82001E-07   206   0.436E-03
  29 F= -.12917953E+03 E0= -.12917953E+03  d E =-.259374E-02
       N       E                     dE             d eps       ncg     rms          rms(c)
DAV:   1    -0.129181972688E+03   -0.24480E-02   -0.72973E-02   332   0.139E+00    0.950E-02
DAV:   2    -0.129182202205E+03   -0.22952E-03   -0.33059E-03   392   0.256E-01    0.523E-02
DAV:   3    -0.129182159868E+03    0.42337E-04   -0.86360E-05   342   0.530E-02    0.294E-02
DAV:   4    -0.129182134926E+03    0.24942E-04   -0.76705E-05   305   0.458E-02    0.627E-03
DAV:   5    -0.129182134084E+03    0.84249E-06   -0.16386E-05   360   0.207E-02    0.380E-03
DAV:   6    -0.129182135708E+03   -0.16239E-05   -0.26011E-06   224   0.836E-03
  30 F= -.12918214E+03 E0= -.12918214E+03  d E =-.260368E-02
       N       E                     dE             d eps       ncg     rms          rms(c)
DAV:   1    -0.129182344457E+03   -0.21037E-03   -0.98324E-02   332   0.161E+00    0.108E-01
DAV:   2    -0.129182633583E+03   -0.28913E-03   -0.44403E-03   448   0.296E-01    0.601E-02
DAV:   3    -0.129182563119E+03    0.70465E-04   -0.11535E-04   368   0.611E-02    0.340E-02
DAV:   4    -0.129182524271E+03    0.38848E-04   -0.10484E-04   360   0.528E-02    0.730E-03
DAV:   5    -0.129182526560E+03   -0.22896E-05   -0.19079E-05   272   0.228E-02    0.451E-03
DAV:   6    -0.129182532449E+03   -0.58888E-05   -0.35085E-06   288   0.944E-03
  31 F= -.12918253E+03 E0= -.12918253E+03  d E =-.396742E-03
       N       E                     dE             d eps       ncg     rms          rms(c)
DAV:   1    -0.129182600033E+03   -0.73473E-04   -0.86896E-05   332   0.488E-02    0.289E-03
DAV:   2    -0.129182606569E+03   -0.65362E-05   -0.49305E-06   272   0.119E-02    0.184E-03
DAV:   3    -0.129182612631E+03   -0.60621E-05   -0.68646E-07   204   0.409E-03    0.117E-03
DAV:   4    -0.129182622329E+03   -0.96974E-05   -0.60234E-07   331   0.266E-03    0.469E-04
DAV:   5    -0.129182627631E+03   -0.53020E-05   -0.17318E-07   272   0.152E-03    0.316E-04
DAV:   6    -0.129182632083E+03   -0.44521E-05   -0.17136E-07   280   0.120E-03
  32 F= -.12918263E+03 E0= -.12918263E+03  d E =-.996338E-04
       N       E                     dE             d eps       ncg     rms          rms(c)
DAV:   1    -0.129182741449E+03   -0.11382E-03   -0.34465E-04   378   0.974E-02    0.498E-03
DAV:   2    -0.129182743355E+03   -0.19055E-05   -0.14637E-05   272   0.188E-02    0.330E-03
DAV:   3    -0.129182744049E+03   -0.69409E-06   -0.13825E-06   264   0.596E-03    0.219E-03
DAV:   4    -0.129182745282E+03   -0.12333E-05   -0.55937E-07   268   0.390E-03    0.707E-04
DAV:   5    -0.129182745674E+03   -0.39187E-06   -0.86170E-08   272   0.181E-03    0.370E-04
DAV:   6    -0.129182746125E+03   -0.45073E-06   -0.84938E-09   204   0.102E-03
  33 F= -.12918275E+03 E0= -.12918275E+03  d E =-.114042E-03
       N       E                     dE             d eps       ncg     rms          rms(c)
DAV:   1    -0.129182879268E+03   -0.13359E-03   -0.70308E-04   368   0.139E-01    0.803E-03
DAV:   2    -0.129182881094E+03   -0.18263E-05   -0.27167E-05   210   0.252E-02    0.484E-03
DAV:   3    -0.129182881093E+03    0.13570E-08   -0.29877E-06   248   0.845E-03    0.274E-03
DAV:   4    -0.129182881095E+03   -0.19800E-08   -0.10505E-06   266   0.471E-03    0.940E-04
DAV:   5    -0.129182881134E+03   -0.38973E-07   -0.15488E-07   264   0.249E-03    0.443E-04
DAV:   6    -0.129182881228E+03   -0.93793E-07    0.92444E-10   220   0.129E-03
  34 F= -.12918288E+03 E0= -.12918288E+03  d E =-.135103E-03
       N       E                     dE             d eps       ncg     rms          rms(c)
DAV:   1    -0.129183026200E+03   -0.14507E-03   -0.10850E-03   376   0.173E-01    0.977E-03
DAV:   2    -0.129183028471E+03   -0.22720E-05   -0.41213E-05   239   0.310E-02    0.595E-03
DAV:   3    -0.129183028121E+03    0.34997E-06   -0.45524E-06   272   0.104E-02    0.340E-03
DAV:   4    -0.129183027680E+03    0.44186E-06   -0.13562E-06   222   0.584E-03    0.102E-03
DAV:   5    -0.129183027630E+03    0.49338E-07   -0.33302E-07   248   0.313E-03    0.484E-04
DAV:   6    -0.129183027729E+03   -0.98264E-07   -0.57839E-08   206   0.162E-03
  35 F= -.12918303E+03 E0= -.12918303E+03  d E =-.146501E-03
       N       E                     dE             d eps       ncg     rms          rms(c)
DAV:   1    -0.129183169944E+03   -0.14231E-03   -0.14031E-03   366   0.198E-01    0.108E-02
DAV:   2    -0.129183172943E+03   -0.29993E-05   -0.52066E-05   238   0.349E-02    0.667E-03
DAV:   3    -0.129183172568E+03    0.37495E-06   -0.57893E-06   248   0.117E-02    0.384E-03
DAV:   4    -0.129183172074E+03    0.49364E-06   -0.17729E-06   212   0.662E-03    0.114E-03
DAV:   5    -0.129183172053E+03    0.21625E-07   -0.45690E-07   175   0.353E-03    0.549E-04
DAV:   6    -0.129183172199E+03   -0.14587E-06   -0.10714E-07   202   0.184E-03
  36 F= -.12918317E+03 E0= -.12918317E+03  d E =-.144470E-03
       N       E                     dE             d eps       ncg     rms          rms(c)
DAV:   1    -0.129183305194E+03   -0.13314E-03   -0.15791E-03   365   0.210E-01    0.109E-02
DAV:   2    -0.129183308532E+03   -0.33375E-05   -0.55361E-05   221   0.361E-02    0.684E-03
DAV:   3    -0.129183308229E+03    0.30289E-06   -0.61516E-06   167   0.121E-02    0.398E-03
DAV:   4    -0.129183307813E+03    0.41605E-06   -0.19311E-06   216   0.692E-03    0.115E-03
DAV:   5    -0.129183307848E+03   -0.35328E-07   -0.50207E-07   170   0.364E-03    0.574E-04
DAV:   6    -0.129183308035E+03   -0.18711E-06   -0.12890E-07   200   0.191E-03
  37 F= -.12918331E+03 E0= -.12918331E+03  d E =-.135836E-03
       N       E                     dE             d eps       ncg     rms          rms(c)
DAV:   1    -0.129183449721E+03   -0.14187E-03   -0.19616E-03   367   0.234E-01    0.111E-02
DAV:   2    -0.129183453627E+03   -0.39055E-05   -0.61646E-05   204   0.381E-02    0.715E-03
DAV:   3    -0.129183453442E+03    0.18509E-06   -0.67983E-06   167   0.127E-02    0.422E-03
DAV:   4    -0.129183453133E+03    0.30863E-06   -0.22018E-06   165   0.746E-03    0.117E-03
DAV:   5    -0.129183453212E+03   -0.79344E-07   -0.57741E-07   165   0.383E-03    0.620E-04
DAV:   6    -0.129183453423E+03   -0.21014E-06   -0.16006E-07   167   0.202E-03
  38 F= -.12918345E+03 E0= -.12918345E+03  d E =-.145388E-03
       N       E                     dE             d eps       ncg     rms          rms(c)
DAV:   1    -0.129183622804E+03   -0.16959E-03   -0.23476E-03   333   0.254E-01    0.107E-02
DAV:   2    -0.129183626937E+03   -0.41330E-05   -0.61187E-05   202   0.380E-02    0.696E-03
DAV:   3    -0.129183626995E+03   -0.57511E-07   -0.65914E-06   164   0.127E-02    0.414E-03
DAV:   4    -0.129183626990E+03    0.49540E-08   -0.21571E-06   164   0.753E-03    0.107E-03
DAV:   5    -0.129183627136E+03   -0.14622E-06   -0.58142E-07   164   0.378E-03    0.627E-04
DAV:   6    -0.129183627365E+03   -0.22873E-06   -0.16726E-07   168   0.197E-03
  39 F= -.12918363E+03 E0= -.12918363E+03  d E =-.173942E-03
       N       E                     dE             d eps       ncg     rms          rms(c)
DAV:   1    -0.129183856472E+03   -0.22934E-03   -0.30327E-03   331   0.285E-01    0.109E-02
DAV:   2    -0.129183861334E+03   -0.48616E-05   -0.65849E-05   233   0.385E-02    0.694E-03
DAV:   3    -0.129183861550E+03   -0.21603E-06   -0.46500E-06   164   0.102E-02    0.412E-03
DAV:   4    -0.129183861996E+03   -0.44614E-06   -0.20623E-06   203   0.743E-03    0.911E-04
DAV:   5    -0.129183862191E+03   -0.19543E-06   -0.60037E-07   165   0.371E-03    0.632E-04
DAV:   6    -0.129183862391E+03   -0.19984E-06   -0.15798E-07   201   0.172E-03
  40 F= -.12918386E+03 E0= -.12918386E+03  d E =-.235027E-03
       N       E                     dE             d eps       ncg     rms          rms(c)
DAV:   1    -0.129184182077E+03   -0.31989E-03   -0.45977E-03   332   0.349E-01    0.133E-02
DAV:   2    -0.129184189265E+03   -0.71878E-05   -0.94116E-05   270   0.454E-02    0.798E-03
DAV:   3    -0.129184189768E+03   -0.50361E-06   -0.62889E-06   204   0.119E-02    0.466E-03
DAV:   4    -0.129184190658E+03   -0.88921E-06   -0.25640E-06   236   0.816E-03    0.936E-04
DAV:   5    -0.129184190919E+03   -0.26184E-06   -0.79276E-07   211   0.408E-03    0.628E-04
DAV:   6    -0.129184191096E+03   -0.17646E-06   -0.20475E-07   228   0.180E-03
  41 F= -.12918419E+03 E0= -.12918419E+03  d E =-.328705E-03
       N       E                     dE             d eps       ncg     rms          rms(c)
DAV:   1    -0.129184610094E+03   -0.41917E-03   -0.78105E-03   332   0.457E-01    0.177E-02
DAV:   2    -0.129184623309E+03   -0.13215E-04   -0.17556E-04   268   0.618E-02    0.108E-02
DAV:   3    -0.129184623744E+03   -0.43531E-06   -0.11589E-05   264   0.162E-02    0.648E-03
DAV:   4    -0.129184624710E+03   -0.96556E-06   -0.49388E-06   202   0.113E-02    0.138E-03
DAV:   5    -0.129184624934E+03   -0.22409E-06   -0.15104E-06   272   0.569E-03    0.867E-04
DAV:   6    -0.129184625077E+03   -0.14322E-06   -0.43157E-07   208   0.259E-03
  42 F= -.12918463E+03 E0= -.12918463E+03  d E =-.433982E-03
       N       E                     dE             d eps       ncg     rms          rms(c)
DAV:   1    -0.129185119206E+03   -0.49427E-03   -0.13327E-02   336   0.599E-01    0.236E-02
DAV:   2    -0.129185144368E+03   -0.25162E-04   -0.33600E-04   331   0.833E-02    0.148E-02
DAV:   3    -0.129185143086E+03    0.12817E-05   -0.12206E-05   256   0.186E-02    0.895E-03
DAV:   4    -0.129185143576E+03   -0.48943E-06   -0.71739E-06   200   0.145E-02    0.200E-03
DAV:   5    -0.129185143786E+03   -0.20983E-06   -0.17276E-06   272   0.718E-03    0.106E-03
DAV:   6    -0.129185143975E+03   -0.18936E-06   -0.26060E-07   208   0.279E-03
  43 F= -.12918514E+03 E0= -.12918514E+03  d E =-.518898E-03
       N       E                     dE             d eps       ncg     rms          rms(c)
DAV:   1    -0.129185686116E+03   -0.54233E-03   -0.21282E-02   334   0.756E-01    0.292E-02
DAV:   2    -0.129185726232E+03   -0.40115E-04   -0.52538E-04   300   0.104E-01    0.188E-02
DAV:   3    -0.129185724052E+03    0.21794E-05   -0.14266E-05   255   0.213E-02    0.116E-02
DAV:   4    -0.129185725192E+03   -0.11395E-05   -0.11767E-05   216   0.191E-02    0.232E-03
DAV:   5    -0.129185725598E+03   -0.40675E-06   -0.30195E-06   224   0.903E-03    0.153E-03
DAV:   6    -0.129185725962E+03   -0.36368E-06   -0.55736E-07   210   0.363E-03
  44 F= -.12918573E+03 E0= -.12918573E+03  d E =-.581987E-03
       N       E                     dE             d eps       ncg     rms          rms(c)
DAV:   1    -0.129186347894E+03   -0.62230E-03   -0.31433E-02   334   0.914E-01    0.340E-02
DAV:   2    -0.129186404679E+03   -0.56784E-04   -0.72106E-04   332   0.121E-01    0.220E-02
DAV:   3    -0.129186401984E+03    0.26948E-05   -0.13252E-05   212   0.211E-02    0.134E-02
DAV:   4    -0.129186405508E+03   -0.35243E-05   -0.17738E-05   298   0.218E-02    0.310E-03
DAV:   5    -0.129186405922E+03   -0.41342E-06   -0.32796E-06   202   0.994E-03    0.197E-03
DAV:   6    -0.129186406356E+03   -0.43454E-06   -0.41894E-07   203   0.353E-03
  45 F= -.12918641E+03 E0= -.12918641E+03  d E =-.680394E-03
       N       E                     dE             d eps       ncg     rms          rms(c)
DAV:   1    -0.129187183818E+03   -0.77790E-03   -0.45829E-02   328   0.110E+00    0.399E-02
DAV:   2    -0.129187264315E+03   -0.80497E-04   -0.10044E-03   387   0.142E-01    0.260E-02
DAV:   3    -0.129187260470E+03    0.38450E-05   -0.13821E-05   236   0.234E-02    0.156E-02
DAV:   4    -0.129187266122E+03   -0.56520E-05   -0.21772E-05   268   0.246E-02    0.345E-03
DAV:   5    -0.129187266669E+03   -0.54764E-06   -0.44196E-06   272   0.115E-02    0.201E-03
DAV:   6    -0.129187266999E+03   -0.32965E-06   -0.47103E-07   222   0.369E-03
  46 F= -.12918727E+03 E0= -.12918727E+03  d E =-.860643E-03
       N       E                     dE             d eps       ncg     rms          rms(c)
DAV:   1    -0.129188181926E+03   -0.91526E-03   -0.68684E-02   330   0.135E+00    0.487E-02
DAV:   2    -0.129188305021E+03   -0.12309E-03   -0.15496E-03   380   0.177E-01    0.329E-02
DAV:   3    -0.129188297707E+03    0.73142E-05   -0.21957E-05   255   0.292E-02    0.200E-02
DAV:   4    -0.129188303748E+03   -0.60414E-05   -0.36614E-05   305   0.322E-02    0.459E-03
DAV:   5    -0.129188304192E+03   -0.44386E-06   -0.76478E-06   272   0.152E-02    0.273E-03
DAV:   6    -0.129188304562E+03   -0.37000E-06   -0.95592E-07   256   0.510E-03
  47 F= -.12918830E+03 E0= -.12918830E+03  d E =-.103756E-02
       N       E                     dE             d eps       ncg     rms          rms(c)
DAV:   1    -0.129189271457E+03   -0.96727E-03   -0.99365E-02   332   0.162E+00    0.586E-02
DAV:   2    -0.129189446209E+03   -0.17475E-03   -0.22071E-03   355   0.212E-01    0.397E-02
DAV:   3    -0.129189437493E+03    0.87154E-05   -0.40378E-05   248   0.366E-02    0.243E-02
DAV:   4    -0.129189446616E+03   -0.91226E-05   -0.58449E-05   296   0.404E-02    0.581E-03
DAV:   5    -0.129189447250E+03   -0.63422E-06   -0.11378E-05   264   0.183E-02    0.390E-03
DAV:   6    -0.129189447960E+03   -0.71043E-06   -0.16397E-06   208   0.653E-03
  48 F= -.12918945E+03 E0= -.12918945E+03  d E =-.114340E-02
       N       E                     dE             d eps       ncg     rms          rms(c)
DAV:   1    -0.129190550692E+03   -0.11034E-02   -0.13258E-01   329   0.187E+00    0.675E-02
DAV:   2    -0.129190775181E+03   -0.22449E-03   -0.28107E-03   355   0.238E-01    0.444E-02
DAV:   3    -0.129190768307E+03    0.68740E-05   -0.61868E-05   335   0.406E-02    0.266E-02
DAV:   4    -0.129190783736E+03   -0.15429E-04   -0.47677E-05   241   0.396E-02    0.494E-03
DAV:   5    -0.129190785307E+03   -0.15709E-05   -0.11322E-05   256   0.180E-02    0.353E-03
DAV:   6    -0.129190786490E+03   -0.11833E-05   -0.13756E-06   212   0.627E-03
  49 F= -.12919079E+03 E0= -.12919079E+03  d E =-.133853E-02
       N       E                     dE             d eps       ncg     rms          rms(c)
DAV:   1    -0.129191998655E+03   -0.12133E-02   -0.17699E-01   328   0.216E+00    0.799E-02
DAV:   2    -0.129192301860E+03   -0.30321E-03   -0.38288E-03   348   0.277E-01    0.524E-02
DAV:   3    -0.129192292703E+03    0.91570E-05   -0.88533E-05   344   0.479E-02    0.316E-02
DAV:   4    -0.129192312395E+03   -0.19691E-04   -0.63514E-05   298   0.452E-02    0.576E-03
DAV:   5    -0.129192314290E+03   -0.18955E-05   -0.14309E-05   272   0.201E-02    0.398E-03
DAV:   6    -0.129192315484E+03   -0.11939E-05   -0.18061E-06   204   0.706E-03
  50 F= -.12919232E+03 E0= -.12919232E+03  d E =-.152899E-02
       N       E                     dE             d eps       ncg     rms          rms(c)
DAV:   1    -0.129193560650E+03   -0.12464E-02   -0.22085E-01   332   0.240E+00    0.893E-02
DAV:   2    -0.129193916716E+03   -0.35607E-03   -0.45323E-03   340   0.301E-01    0.585E-02
DAV:   3    -0.129193909719E+03    0.69970E-05   -0.10764E-04   326   0.517E-02    0.346E-02
DAV:   4    -0.129193934267E+03   -0.24549E-04   -0.71505E-05   270   0.482E-02    0.596E-03
DAV:   5    -0.129193936480E+03   -0.22121E-05   -0.16638E-05   272   0.215E-02    0.440E-03
DAV:   6    -0.129193937963E+03   -0.14831E-05   -0.19314E-06   222   0.760E-03
  51 F= -.12919394E+03 E0= -.12919394E+03  d E =-.162248E-02
       N       E                     dE             d eps       ncg     rms          rms(c)
DAV:   1    -0.129195319211E+03   -0.13827E-02   -0.26907E-01   328   0.263E+00    0.996E-02
DAV:   2    -0.129195734876E+03   -0.41567E-03   -0.53489E-03   339   0.328E-01    0.666E-02
DAV:   3    -0.129195728374E+03    0.65025E-05   -0.13425E-04   341   0.566E-02    0.388E-02
DAV:   4    -0.129195754934E+03   -0.26560E-04   -0.90888E-05   316   0.534E-02    0.668E-03
DAV:   5    -0.129195756977E+03   -0.20435E-05   -0.19029E-05   272   0.228E-02    0.516E-03
DAV:   6    -0.129195758508E+03   -0.15312E-05   -0.26364E-06   258   0.827E-03
  52 F= -.12919576E+03 E0= -.12919576E+03  d E =-.182055E-02
       N       E                     dE             d eps       ncg     rms          rms(c)
DAV:   1    -0.129197131357E+03   -0.13744E-02   -0.32572E-01   330   0.287E+00    0.113E-01
DAV:   2    -0.129197605219E+03   -0.47386E-03   -0.61991E-03   397   0.350E-01    0.743E-02
DAV:   3    -0.129197593063E+03    0.12156E-04   -0.10083E-04   333   0.575E-02    0.411E-02
DAV:   4    -0.129197626910E+03   -0.33847E-04   -0.95505E-05   269   0.529E-02    0.685E-03
DAV:   5    -0.129197629886E+03   -0.29764E-05   -0.19327E-05   240   0.232E-02    0.424E-03
DAV:   6    -0.129197632074E+03   -0.21876E-05   -0.22233E-06   244   0.766E-03
  53 F= -.12919763E+03 E0= -.12919763E+03  d E =-.187357E-02
       N       E                     dE             d eps       ncg     rms          rms(c)
DAV:   1    -0.129199077769E+03   -0.14479E-02   -0.40222E-01   328   0.316E+00    0.132E-01
DAV:   2    -0.129199640531E+03   -0.56276E-03   -0.75272E-03   396   0.383E-01    0.862E-02
DAV:   3    -0.129199626114E+03    0.14417E-04   -0.13700E-04   332   0.656E-02    0.471E-02
DAV:   4    -0.129199669871E+03   -0.43758E-04   -0.11986E-04   333   0.576E-02    0.773E-03
DAV:   5    -0.129199672810E+03   -0.29387E-05   -0.22111E-05   264   0.242E-02    0.492E-03
DAV:   6    -0.129199674651E+03   -0.18411E-05   -0.29669E-06   258   0.839E-03
  54 F= -.12919967E+03 E0= -.12919967E+03  d E =-.204258E-02
       N       E                     dE             d eps       ncg     rms          rms(c)
DAV:   1    -0.129201212395E+03   -0.15396E-02   -0.50412E-01   328   0.350E+00    0.151E-01
DAV:   2    -0.129201837836E+03   -0.62544E-03   -0.85913E-03   396   0.410E-01    0.984E-02
DAV:   3    -0.129201831872E+03    0.59639E-05   -0.16537E-04   332   0.714E-02    0.502E-02
DAV:   4    -0.129201883917E+03   -0.52045E-04   -0.14432E-04   332   0.595E-02    0.935E-03
DAV:   5    -0.129201885696E+03   -0.17797E-05   -0.23087E-05   238   0.252E-02    0.482E-03
DAV:   6    -0.129201887626E+03   -0.19293E-05   -0.33215E-06   300   0.858E-03
  55 F= -.12920189E+03 E0= -.12920189E+03  d E =-.221297E-02
       N       E                     dE             d eps       ncg     rms          rms(c)
DAV:   1    -0.129203426717E+03   -0.15410E-02   -0.68073E-01   328   0.405E+00    0.178E-01
DAV:   2    -0.129204233167E+03   -0.80645E-03   -0.11281E-02   397   0.469E-01    0.116E-01
DAV:   3    -0.129204229476E+03    0.36904E-05   -0.24001E-04   332   0.838E-02    0.574E-02
DAV:   4    -0.129204294540E+03   -0.65064E-04   -0.17260E-04   374   0.640E-02    0.108E-02
DAV:   5    -0.129204296535E+03   -0.19951E-05   -0.25974E-05   236   0.270E-02    0.555E-03
DAV:   6    -0.129204298927E+03   -0.23924E-05   -0.38445E-06   264   0.945E-03
  56 F= -.12920430E+03 E0= -.12920430E+03  d E =-.241130E-02
       N       E                     dE             d eps       ncg     rms          rms(c)
DAV:   1    -0.129205533497E+03   -0.12370E-02   -0.93998E-01   328   0.479E+00    0.214E-01
DAV:   2    -0.129206748351E+03   -0.12149E-02   -0.16858E-02   388   0.572E-01    0.140E-01
DAV:   3    -0.129206724814E+03    0.23537E-04   -0.40400E-04   427   0.107E-01    0.753E-02
DAV:   4    -0.129206816855E+03   -0.92040E-04   -0.22936E-04   380   0.763E-02    0.123E-02
DAV:   5    -0.129206821421E+03   -0.45663E-05   -0.32900E-05   296   0.289E-02    0.806E-03
DAV:   6    -0.129206823469E+03   -0.20480E-05   -0.41053E-06   248   0.105E-02
  57 F= -.12920682E+03 E0= -.12920682E+03  d E =-.252454E-02
       N       E                     dE             d eps       ncg     rms          rms(c)
DAV:   1    -0.129206395320E+03    0.42610E-03   -0.14308E+00   328   0.604E+00    0.264E-01
DAV:   2    -0.129208648168E+03   -0.22528E-02   -0.31335E-02   362   0.794E-01    0.176E-01
DAV:   3    -0.129208540298E+03    0.10787E-03   -0.66526E-04   446   0.138E-01    0.955E-02
DAV:   4    -0.129208618549E+03   -0.78250E-04   -0.50164E-04   427   0.115E-01    0.177E-02
DAV:   5    -0.129208623743E+03   -0.51937E-05   -0.78678E-05   368   0.464E-02    0.121E-02
DAV:   6    -0.129208627231E+03   -0.34883E-05   -0.83980E-06   206   0.154E-02
  58 F= -.12920863E+03 E0= -.12920863E+03  d E =-.180376E-02
       N       E                     dE             d eps       ncg     rms          rms(c)
DAV:   1    -0.129209932003E+03   -0.13083E-02   -0.70602E-02   335   0.133E+00    0.905E-02
DAV:   2    -0.129210161046E+03   -0.22904E-03   -0.31537E-03   393   0.243E-01    0.524E-02
DAV:   3    -0.129210134203E+03    0.26843E-04   -0.82439E-05   342   0.489E-02    0.297E-02
DAV:   4    -0.129210128096E+03    0.61071E-05   -0.73107E-05   297   0.426E-02    0.587E-03
DAV:   5    -0.129210131249E+03   -0.31526E-05   -0.14877E-05   368   0.186E-02    0.369E-03
DAV:   6    -0.129210133142E+03   -0.18930E-05   -0.22659E-06   220   0.741E-03
  59 F= -.12921013E+03 E0= -.12921013E+03  d E =-.150591E-02
