 vasp.5.4.1 24Jun15 (build Jan 13 2020 12:58:22) complex                        
  
 executed on           IFC91_ompi date 2020.02.03  09:59:13
 running on   15 total cores
 each image running on    1 cores
 distrk:  each k-point on    1 cores,    1 groups
 distr:  one band on NCORES_PER_BAND=   1 cores,    1 groups


--------------------------------------------------------------------------------------------------------


 INCAR:
 POTCAR:    PAW_PBE H 15Jun2001                   
 POTCAR:    PAW_PBE C 08Apr2002                   
 POTCAR:    PAW_PBE N 08Apr2002                   
 POTCAR:    PAW_PBE O 08Apr2002                   
 POTCAR:    PAW_PBE H 15Jun2001                   
   VRHFIN =H: ultrasoft test                                                    
   LEXCH  = PE                                                                  
   EATOM  =    12.4884 eV,    0.9179 Ry                                         
                                                                                
   TITEL  = PAW_PBE H 15Jun2001                                                 
   LULTRA =        F    use ultrasoft PP ?                                      
   IUNSCR =        0    unscreen: 0-lin 1-nonlin 2-no                           
   RPACOR =    0.000    partial core radius                                     
   POMASS =    1.000; ZVAL   =    1.000    mass and valenz                      
   RCORE  =    1.100    outmost cutoff radius                                   
   RWIGS  =    0.700; RWIGS  =    0.370    wigner-seitz radius (au A)           
   ENMAX  =  250.000; ENMIN  =  200.000 eV                                      
   RCLOC  =    0.701    cutoff for local pot                                    
   LCOR   =        T    correct aug charges                                     
   LPAW   =        T    paw PP                                                  
   EAUG   =  400.000                                                            
   RMAX   =    1.123    core radius for proj-oper                               
   RAUG   =    1.200    factor for augmentation sphere                          
   RDEP   =    1.112    radius for radial grids                                 
   RDEPT  =    0.926    core radius for aug-charge                              
                                                                                
   Atomic configuration                                                         
    2 entries                                                                   
     n  l   j            E        occ.                                          
     1  0  0.50        -6.4927   1.0000                                         
     2  1  0.50        -3.4015   0.0000                                         
   Description                                                                  
     l       E           TYP  RCUT    TYP  RCUT                                 
     0     -6.4927494     23  1.100                                             
     0      6.8029130     23  1.100                                             
     1     -4.0817478     23  1.100                                             
  local pseudopotential read in
  atomic valenz-charges read in
  non local Contribution for L=           0  read in
    real space projection operators read in
  non local Contribution for L=           0  read in
    real space projection operators read in
  non local Contribution for L=           1  read in
    real space projection operators read in
    PAW grid and wavefunctions read in
 
   number of l-projection  operators is LMAX  =           3
   number of lm-projection operators is LMMAX =           5
 
 POTCAR:    PAW_PBE C 08Apr2002                   
   VRHFIN =C: s2p2                                                              
   LEXCH  = PE                                                                  
   EATOM  =   147.1560 eV,   10.8157 Ry                                         
                                                                                
   TITEL  = PAW_PBE C 08Apr2002                                                 
   LULTRA =        F    use ultrasoft PP ?                                      
   IUNSCR =        1    unscreen: 0-lin 1-nonlin 2-no                           
   RPACOR =    1.200    partial core radius                                     
   POMASS =   12.011; ZVAL   =    4.000    mass and valenz                      
   RCORE  =    1.500    outmost cutoff radius                                   
   RWIGS  =    1.630; RWIGS  =    0.863    wigner-seitz radius (au A)           
   ENMAX  =  400.000; ENMIN  =  300.000 eV                                      
   ICORE  =        2    local potential                                         
   LCOR   =        T    correct aug charges                                     
   LPAW   =        T    paw PP                                                  
   EAUG   =  644.873                                                            
   DEXC   =    0.000                                                            
   RMAX   =    1.529    core radius for proj-oper                               
   RAUG   =    1.300    factor for augmentation sphere                          
   RDEP   =    1.501    radius for radial grids                                 
   RDEPT  =    1.300    core radius for aug-charge                              
                                                                                
   Atomic configuration                                                         
    4 entries                                                                   
     n  l   j            E        occ.                                          
     1  0  0.50      -273.3789   2.0000                                         
     2  0  0.50       -13.7508   2.0000                                         
     2  1  0.50        -5.2854   2.0000                                         
     3  2  1.50        -5.4423   0.0000                                         
   Description                                                                  
     l       E           TYP  RCUT    TYP  RCUT                                 
     0    -13.7508458     23  1.200                                             
     0     -8.2022199     23  1.200                                             
     1     -5.2854383     23  1.500                                             
     1     34.0145650     23  1.500                                             
     2     -5.4423304      7  1.500                                             
  local pseudopotential read in
  partial core-charges read in
  partial kinetic energy density read in
  atomic valenz-charges read in
  non local Contribution for L=           0  read in
    real space projection operators read in
  non local Contribution for L=           0  read in
    real space projection operators read in
  non local Contribution for L=           1  read in
    real space projection operators read in
  non local Contribution for L=           1  read in
    real space projection operators read in
    PAW grid and wavefunctions read in
 
   number of l-projection  operators is LMAX  =           4
   number of lm-projection operators is LMMAX =           8
 
 POTCAR:    PAW_PBE N 08Apr2002                   
   VRHFIN =N: s2p3                                                              
   LEXCH  = PE                                                                  
   EATOM  =   264.5486 eV,   19.4438 Ry                                         
                                                                                
   TITEL  = PAW_PBE N 08Apr2002                                                 
   LULTRA =        F    use ultrasoft PP ?                                      
   IUNSCR =        1    unscreen: 0-lin 1-nonlin 2-no                           
   RPACOR =    1.200    partial core radius                                     
   POMASS =   14.001; ZVAL   =    5.000    mass and valenz                      
   RCORE  =    1.500    outmost cutoff radius                                   
   RWIGS  =    1.400; RWIGS  =    0.741    wigner-seitz radius (au A)           
   ENMAX  =  400.000; ENMIN  =  300.000 eV                                      
   ICORE  =        2    local potential                                         
   LCOR   =        T    correct aug charges                                     
   LPAW   =        T    paw PP                                                  
   EAUG   =  627.112                                                            
   DEXC   =    0.000                                                            
   RMAX   =    1.529    core radius for proj-oper                               
   RAUG   =    1.300    factor for augmentation sphere                          
   RDEP   =    1.514    radius for radial grids                                 
   RDEPT  =    1.338    core radius for aug-charge                              
                                                                                
   Atomic configuration                                                         
    4 entries                                                                   
     n  l   j            E        occ.                                          
     1  0  0.50      -384.7179   2.0000                                         
     2  0  0.50       -18.5828   2.0000                                         
     2  1  0.50        -7.0898   3.0000                                         
     3  2  1.50        -6.8029   0.0000                                         
   Description                                                                  
     l       E           TYP  RCUT    TYP  RCUT                                 
     0    -18.5828119     23  1.200                                             
     0    -13.5018863     23  1.200                                             
     1     -7.0897853     23  1.500                                             
     1      9.5240782     23  1.500                                             
     2     -6.8029130      7  1.500                                             
  local pseudopotential read in
  partial core-charges read in
  partial kinetic energy density read in
  atomic valenz-charges read in
  non local Contribution for L=           0  read in
    real space projection operators read in
  non local Contribution for L=           0  read in
    real space projection operators read in
  non local Contribution for L=           1  read in
    real space projection operators read in
  non local Contribution for L=           1  read in
    real space projection operators read in
    PAW grid and wavefunctions read in
 
   number of l-projection  operators is LMAX  =           4
   number of lm-projection operators is LMMAX =           8
 
 POTCAR:    PAW_PBE O 08Apr2002                   
   VRHFIN =O: s2p4                                                              
   LEXCH  = PE                                                                  
   EATOM  =   432.3788 eV,   31.7789 Ry                                         
                                                                                
   TITEL  = PAW_PBE O 08Apr2002                                                 
   LULTRA =        F    use ultrasoft PP ?                                      
   IUNSCR =        1    unscreen: 0-lin 1-nonlin 2-no                           
   RPACOR =    1.200    partial core radius                                     
   POMASS =   16.000; ZVAL   =    6.000    mass and valenz                      
   RCORE  =    1.520    outmost cutoff radius                                   
   RWIGS  =    1.550; RWIGS  =    0.820    wigner-seitz radius (au A)           
   ENMAX  =  400.000; ENMIN  =  300.000 eV                                      
   ICORE  =        2    local potential                                         
   LCOR   =        T    correct aug charges                                     
   LPAW   =        T    paw PP                                                  
   EAUG   =  605.392                                                            
   DEXC   =    0.000                                                            
   RMAX   =    1.553    core radius for proj-oper                               
   RAUG   =    1.300    factor for augmentation sphere                          
   RDEP   =    1.550    radius for radial grids                                 
   RDEPT  =    1.329    core radius for aug-charge                              
                                                                                
   Atomic configuration                                                         
    4 entries                                                                   
     n  l   j            E        occ.                                          
     1  0  0.50      -514.6923   2.0000                                         
     2  0  0.50       -23.9615   2.0000                                         
     2  1  0.50        -9.0305   4.0000                                         
     3  2  1.50        -9.5241   0.0000                                         
   Description                                                                  
     l       E           TYP  RCUT    TYP  RCUT                                 
     0    -23.9615318     23  1.200                                             
     0     -9.5240782     23  1.200                                             
     1     -9.0304911     23  1.520                                             
     1      8.1634956     23  1.520                                             
     2     -9.5240782      7  1.500                                             
  local pseudopotential read in
  partial core-charges read in
  partial kinetic energy density read in
  kinetic energy density of atom read in
  atomic valenz-charges read in
  non local Contribution for L=           0  read in
    real space projection operators read in
  non local Contribution for L=           0  read in
    real space projection operators read in
  non local Contribution for L=           1  read in
    real space projection operators read in
  non local Contribution for L=           1  read in
    real space projection operators read in
    PAW grid and wavefunctions read in
 
   number of l-projection  operators is LMAX  =           4
   number of lm-projection operators is LMMAX =           8
 
 Optimization of the real space projectors (new method)

 maximal supplied QI-value         = 34.20
 optimisation between [QCUT,QGAM] = [  9.92, 20.18] = [ 27.55,114.04] Ry 
 Optimized for a Real-space Cutoff    1.26 Angstroem

   l    n(q)    QCUT    max X(q) W(low)/X(q) W(high)/X(q)  e(spline) 
   0      8     9.919    19.460    0.50E-03    0.23E-03    0.29E-06
   0      8     9.919    12.209    0.48E-03    0.23E-03    0.28E-06
   1      7     9.919     4.655    0.17E-03    0.75E-03    0.30E-06
 Optimization of the real space projectors (new method)

 maximal supplied QI-value         = 25.13
 optimisation between [QCUT,QGAM] = [ 10.05, 20.36] = [ 28.30,116.06] Ry 
 Optimized for a Real-space Cutoff    1.30 Angstroem

   l    n(q)    QCUT    max X(q) W(low)/X(q) W(high)/X(q)  e(spline) 
   0      8    10.053   115.676    0.49E-03    0.72E-03    0.18E-06
   0      8    10.053    87.132    0.49E-03    0.71E-03    0.18E-06
   1      7    10.053     4.429    0.32E-03    0.31E-03    0.18E-06
   1      7    10.053     2.733    0.23E-03    0.19E-03    0.20E-06
 Optimization of the real space projectors (new method)

 maximal supplied QI-value         = 25.13
 optimisation between [QCUT,QGAM] = [ 10.05, 20.36] = [ 28.30,116.06] Ry 
 Optimized for a Real-space Cutoff    1.65 Angstroem

   l    n(q)    QCUT    max X(q) W(low)/X(q) W(high)/X(q)  e(spline) 
   0     10    10.053    79.467    0.76E-04    0.72E-04    0.56E-06
   0     10    10.053    66.151    0.76E-04    0.72E-04    0.55E-06
   1     10    10.053     8.350    0.25E-03    0.92E-03    0.41E-05
   1     10    10.053     5.531    0.27E-03    0.10E-02    0.45E-05
 Optimization of the real space projectors (new method)

 maximal supplied QI-value         = 24.76
 optimisation between [QCUT,QGAM] = [ 10.15, 20.30] = [ 28.85,115.39] Ry 
 Optimized for a Real-space Cutoff    1.38 Angstroem

   l    n(q)    QCUT    max X(q) W(low)/X(q) W(high)/X(q)  e(spline) 
   0      8    10.150    20.381    0.22E-03    0.32E-03    0.29E-06
   0      8    10.150    15.268    0.23E-03    0.35E-03    0.30E-06
   1      8    10.150     5.964    0.46E-03    0.53E-03    0.21E-06
   1      8    10.150     5.382    0.38E-03    0.45E-03    0.19E-06
  PAW_PBE H 15Jun2001                   :
 energy of atom  1       EATOM=  -12.4884
 kinetic energy error for atom=    0.0098 (will be added to EATOM!!)
  PAW_PBE C 08Apr2002                   :
 energy of atom  2       EATOM= -147.1560
 kinetic energy error for atom=    0.0288 (will be added to EATOM!!)
  PAW_PBE N 08Apr2002                   :
 energy of atom  3       EATOM= -264.5486
 kinetic energy error for atom=    0.0736 (will be added to EATOM!!)
  PAW_PBE O 08Apr2002                   :
 energy of atom  4       EATOM= -432.3788
 kinetic energy error for atom=    0.1156 (will be added to EATOM!!)
 
 
 POSCAR: H12 C6 N2 O2                            
  positions in direct lattice
  velocities in cartesian coordinates
 exchange correlation table for  LEXCH =        8
   RHO(1)=    0.500       N(1)  =     2000
   RHO(2)=  100.500       N(2)  =     4000

 VTST: version 3.2, (02/03/18)

 CHAIN: initializing optimizer
 
 OPT: Using FIRE optimizer
 OPT: FIRE, Init
 OPT: FIRE, MAXMOVE       0.20000
 OPT: FIRE, TIMESTEP      0.10000
 OPT: FIRE, FTIMEMAX      1.00000
 OPT: FIRE, FTIMEINC      1.10000
 OPT: FIRE, FTIMEDEC      0.50000
 OPT: FIRE, FALPHADEC     0.99000
 OPT: FIRE, FALPHA        0.10000
 OPT: FIRE, FNMIN         5
 
 CHAIN: Read ICHAIN            0
 CHAIN: Running the NEB
 NEB:          SPRING     -5.000000
 NEB:          LCLIMB      T
 NEB:     LTANGENTOLD      F
 NEB:           LDNEB      F
 NEB:        LDNEBORG      F
 NEB:        LNEBCELL      F
 NEB:          EFIRST      0.000000
 NEB:           ELAST      0.000000
 
 POSCAR: H12 C6 N2 O2                            
  positions in direct lattice
  No initial velocities read in
 
 POSCAR: H12 C6 N2 O2                            
  positions in direct lattice
  No initial velocities read in
 


--------------------------------------------------------------------------------------------------------


 ion  position               nearest neighbor table
   1  0.375  0.538  0.498-  13 1.09
   2  0.385  0.490  0.464-  13 1.10
   3  0.381  0.485  0.524-  13 1.10
   4  0.448  0.450  0.488-  19 1.02
   5  0.507  0.447  0.546-  15 1.10
   6  0.562  0.427  0.483-  16 1.09
   7  0.521  0.447  0.445-  16 1.10
   8  0.508  0.400  0.480-  16 1.10
   9  0.508  0.553  0.512-  20 1.05
  10  0.609  0.550  0.508-  18 1.10
  11  0.576  0.575  0.466-  18 1.10
  12  0.578  0.600  0.521-  18 1.09
  13  0.392  0.506  0.496-   1 1.09   3 1.10   2 1.10  14 1.50
  14  0.441  0.515  0.502-  21 1.24  19 1.35  13 1.50
  15  0.510  0.464  0.514-   5 1.10  19 1.46  16 1.53  17 1.53
  16  0.527  0.432  0.478-   6 1.09   8 1.10   7 1.10  15 1.53
  17  0.548  0.498  0.520-  22 1.24  20 1.34  15 1.53
  18  0.578  0.569  0.502-  12 1.09  10 1.10  11 1.10  20 1.44
  19  0.465  0.477  0.500-   4 1.02  14 1.35  15 1.46
  20  0.541  0.541  0.515-   9 1.05  17 1.34  18 1.44
  21  0.455  0.553  0.508-  14 1.24
  22  0.586  0.481  0.528-  17 1.24
 
  LATTYP: Found a simple cubic cell.
 ALAT       =    30.0000000000
  
  Lattice vectors:
  
 A1 = (  30.0000000000,   0.0000000000,   0.0000000000)
 A2 = (   0.0000000000,  30.0000000000,   0.0000000000)
 A3 = (   0.0000000000,   0.0000000000,  30.0000000000)


Analysis of symmetry for initial positions (statically):
=====================================================================
 Subroutine PRICEL returns:
 Original cell was already a primitive cell.
 

 Routine SETGRP: Setting up the symmetry group for a 
 simple cubic supercell.


 Subroutine GETGRP returns: Found  1 space group operations
 (whereof  1 operations were pure point group operations)
 out of a pool of 48 trial point group operations.


The static configuration has the point symmetry C_1 .


Analysis of symmetry for dynamics (positions and initial velocities):
=====================================================================
 Subroutine PRICEL returns:
 Original cell was already a primitive cell.
 

 Routine SETGRP: Setting up the symmetry group for a 
 simple cubic supercell.


 Subroutine GETGRP returns: Found  1 space group operations
 (whereof  1 operations were pure point group operations)
 out of a pool of 48 trial point group operations.


The dynamic configuration has the point symmetry C_1 .
 
 
 KPOINTS: Mo2C                                    

Automatic generation of k-mesh.
Space group operators:
 irot       det(A)        alpha          n_x          n_y          n_z        tau_x        tau_y        tau_z
    1     1.000000     0.000000     1.000000     0.000000     0.000000     0.000000     0.000000     0.000000
 
 Subroutine IBZKPT returns following result:
 ===========================================
 
 Found      4 irreducible k-points:
 
 Following reciprocal coordinates:
            Coordinates               Weight
  0.250000  0.250000  0.250000      2.000000
 -0.250000  0.250000  0.250000      2.000000
  0.250000 -0.250000  0.250000      2.000000
 -0.250000 -0.250000  0.250000      2.000000
 
 Following cartesian coordinates:
            Coordinates               Weight
  0.008333  0.008333  0.008333      2.000000
 -0.008333  0.008333  0.008333      2.000000
  0.008333 -0.008333  0.008333      2.000000
 -0.008333 -0.008333  0.008333      2.000000
 


--------------------------------------------------------------------------------------------------------




 Dimension of arrays:
   k-points           NKPTS =      4   k-points in BZ     NKDIM =      4   number of bands    NBANDS=     41
   number of dos      NEDOS =    301   number of ions     NIONS =     22
   non local maximal  LDIM  =      4   non local SUM 2l+1 LMDIM =      8
   total plane-waves  NPLWV = ******
   max r-space proj   IRMAX =   2395   max aug-charges    IRDMAX=   1821
   dimension x,y,z NGX =   150 NGY =  150 NGZ =  150
   dimension x,y,z NGXF=   300 NGYF=  300 NGZF=  300
   support grid    NGXF=   300 NGYF=  300 NGZF=  300
   ions per type =              12   6   2   2
 NGX,Y,Z   is equivalent  to a cutoff of   8.31,  8.31,  8.31 a.u.
 NGXF,Y,Z  is equivalent  to a cutoff of  16.62, 16.62, 16.62 a.u.


 I would recommend the setting:
   dimension x,y,z NGX =   147 NGY =  147 NGZ =  147
 SYSTEM =  unknown system                          
 POSCAR =  H12 C6 N2 O2                            

 Startparameter for this run:
   NWRITE =      2    write-flag & timer
   PREC   = normal    normal or accurate (medium, high low for compatibility)
   ISTART =      0    job   : 0-new  1-cont  2-samecut
   ICHARG =      2    charge: 1-file 2-atom 10-const
   ISPIN  =      1    spin polarized calculation?
   LNONCOLLINEAR =      F non collinear calculations
   LSORBIT =      F    spin-orbit coupling
   INIWAV =      1    electr: 0-lowe 1-rand  2-diag
   LASPH  =      F    aspherical Exc in radial PAW
   METAGGA=      F    non-selfconsistent MetaGGA calc.

 Electronic Relaxation 1
   ENCUT  =  400.0 eV  29.40 Ry    5.42 a.u.  48.92 48.92 48.92*2*pi/ulx,y,z
   ENINI  =  400.0     initial cutoff
   ENAUG  =  644.9 eV  augmentation charge cutoff
   NELM   =    500;   NELMIN=  6; NELMDL= -5     # of ELM steps 
   EDIFF  = 0.1E-03   stopping-criterion for ELM
   LREAL  =      T    real-space projection
   NLSPLINE    = F    spline interpolate recip. space projectors
   LCOMPAT=      F    compatible to vasp.4.4
   GGA_COMPAT  = T    GGA compatible to vasp.4.4-vasp.4.6
   LMAXPAW     = -100 max onsite density
   LMAXMIX     =    2 max onsite mixed and CHGCAR
   VOSKOWN=      0    Vosko Wilk Nusair interpolation
   ROPT   =   -0.00050  -0.00050  -0.00050  -0.00050
 Ionic relaxation
   EDIFFG = -.1E+00   stopping-criterion for IOM
   NSW    =    300    number of steps for IOM
   NBLOCK =      1;   KBLOCK =    300    inner block; outer block 
   IBRION =      3    ionic relax: 0-MD 1-quasi-New 2-CG
   NFREE  =      0    steps in history (QN), initial steepest desc. (CG)
   ISIF   =      2    stress and relaxation
   IWAVPR =     11    prediction:  0-non 1-charg 2-wave 3-comb
   ISYM   =      2    0-nonsym 1-usesym 2-fastsym
   LCORR  =      T    Harris-Foulkes like correction to forces

   POTIM  = 0.0000    time-step for ionic-motion
   TEIN   =    0.0    initial temperature
   TEBEG  =    0.0;   TEEND  =   0.0 temperature during run
   SMASS  =   2.00    Nose mass-parameter (am)
   estimated Nose-frequenzy (Omega)   =  0.24E+10 period in steps =  0.00 mass=   0.137E-25a.u.
   SCALEE = 1.0000    scale energy and forces
   NPACO  =    256;   APACO  = 16.0  distance and # of slots for P.C.
   PSTRESS=    0.0 pullay stress

  Mass of Ions in am
   POMASS =   1.00 12.01 14.00 16.00
  Ionic Valenz
   ZVAL   =   1.00  4.00  5.00  6.00
  Atomic Wigner-Seitz radii
   RWIGS  =  -1.00 -1.00 -1.00 -1.00
  virtual crystal weights 
   VCA    =   1.00  1.00  1.00  1.00
   NELECT =      58.0000    total number of electrons
   NUPDOWN=      -1.0000    fix difference up-down

 DOS related values:
   EMIN   =  10.00;   EMAX   =-10.00  energy-range for DOS
   EFERMI =   0.00
   ISMEAR =     0;   SIGMA  =   0.20  broadening in eV -4-tet -1-fermi 0-gaus

 Electronic relaxation 2 (details)
   IALGO  =     38    algorithm
   LDIAG  =      T    sub-space diagonalisation (order eigenvalues)
   LSUBROT=      F    optimize rotation matrix (better conditioning)
   TURBO    =      0    0=normal 1=particle mesh
   IRESTART =      0    0=no restart 2=restart with 2 vectors
   NREBOOT  =      0    no. of reboots
   NMIN     =      0    reboot dimension
   EREF     =   0.00    reference energy to select bands
   IMIX   =      4    mixing-type and parameters
     AMIX     =   0.40;   BMIX     =  1.00
     AMIX_MAG =   1.60;   BMIX_MAG =  1.00
     AMIN     =   0.10
     WC   =   100.;   INIMIX=   1;  MIXPRE=   1;  MAXMIX= -45

 Intra band minimization:
   WEIMIN = 0.0010     energy-eigenvalue tresh-hold
   EBREAK =  0.61E-06  absolut break condition
   DEPER  =   0.30     relativ break condition  

   TIME   =   0.40     timestep for ELM

  volume/ion in A,a.u.               =    1227.27      8282.05
  Fermi-wavevector in a.u.,A,eV,Ry     =   0.211234  0.399174  0.607087  0.044620
  Thomas-Fermi vector in A             =   0.980021
 
 Write flags
   LWAVE  =      F    write WAVECAR
   LCHARG =      F    write CHGCAR
   LVTOT  =      F    write LOCPOT, total local potential
   LVHAR  =      F    write LOCPOT, Hartree potential only
   LELF   =      F    write electronic localiz. function (ELF)
   LORBIT =      0    0 simple, 1 ext, 2 COOP (PROOUT)


 Dipole corrections
   LMONO  =      F    monopole corrections only (constant potential shift)
   LDIPOL =      F    correct potential (dipole corrections)
   IDIPOL =      0    1-x, 2-y, 3-z, 4-all directions 
   EPSILON=  1.0000000 bulk dielectric constant

 Exchange correlation treatment:
   GGA     =    PE    GGA type
   LEXCH   =     8    internal setting for exchange type
   VOSKOWN=      0    Vosko Wilk Nusair interpolation
   LHFCALC =     F    Hartree Fock is set to
   LHFONE  =     F    Hartree Fock one center treatment
   AEXX    =    0.0000 exact exchange contribution

 Linear response parameters
   LEPSILON=     F    determine dielectric tensor
   LRPA    =     F    only Hartree local field effects (RPA)
   LNABLA  =     F    use nabla operator in PAW spheres
   LVEL    =     F    velocity operator in full k-point grid
   LINTERFAST=   F  fast interpolation
   KINTER  =     0    interpolate to denser k-point grid
   CSHIFT  =0.1000    complex shift for real part using Kramers Kronig
   OMEGAMAX=  -1.0    maximum frequency
   DEG_THRESHOLD= 0.2000000E-02 threshold for treating states as degnerate
   RTIME   =    0.100 relaxation time in fs

 Orbital magnetization related:
   ORBITALMAG=     F  switch on orbital magnetization
   LCHIMAG   =     F  perturbation theory with respect to B field
   DQ        =  0.001000  dq finite difference perturbation B field



--------------------------------------------------------------------------------------------------------


 quickmin algorithm: (dynamic with friction)
 charge density and potential will be updated during run
 non-spin polarized calculation
 Variant of blocked Davidson
 Davidson routine will perform the subspace rotation
 perform sub-space diagonalisation
    after iterative eigenvector-optimisation
 modified Broyden-mixing scheme, WC =      100.0
 initial mixing is a Kerker type mixing with AMIX =  0.4000 and BMIX =      1.0000
 Hartree-type preconditioning will be used
 using additional bands           12
 real space projection scheme for non local part
 use partial core corrections
 calculate Harris-corrections to forces 
   (improved forces if not selfconsistent)
 use gradient corrections 
 use of overlap-Matrix (Vanderbilt PP)
 Gauss-broadening in eV      SIGMA  =   0.20


--------------------------------------------------------------------------------------------------------


  energy-cutoff  :      400.00
  volume of cell :    27000.00
      direct lattice vectors                 reciprocal lattice vectors
    30.000000000  0.000000000  0.000000000     0.033333333  0.000000000  0.000000000
     0.000000000 30.000000000  0.000000000     0.000000000  0.033333333  0.000000000
     0.000000000  0.000000000 30.000000000     0.000000000  0.000000000  0.033333333

  length of vectors
    30.000000000 30.000000000 30.000000000     0.033333333  0.033333333  0.033333333


 
 k-points in units of 2pi/SCALE and weight: Mo2C                                    
   0.00833333  0.00833333  0.00833333       0.250
  -0.00833333  0.00833333  0.00833333       0.250
   0.00833333 -0.00833333  0.00833333       0.250
  -0.00833333 -0.00833333  0.00833333       0.250
 
 k-points in reciprocal lattice and weights: Mo2C                                    
   0.25000000  0.25000000  0.25000000       0.250
  -0.25000000  0.25000000  0.25000000       0.250
   0.25000000 -0.25000000  0.25000000       0.250
  -0.25000000 -0.25000000  0.25000000       0.250
 
 position of ions in fractional coordinates (direct lattice) 
   0.37493087  0.53841715  0.49792288
   0.38512511  0.48954481  0.46447260
   0.38100173  0.48467724  0.52360675
   0.44835507  0.45024132  0.48771568
   0.50733306  0.44710256  0.54636928
   0.56226154  0.42668132  0.48288169
   0.52060112  0.44661951  0.44539642
   0.50832104  0.40026815  0.48034288
   0.50814327  0.55266888  0.51231367
   0.60869660  0.54998411  0.50814853
   0.57550847  0.57541985  0.46597225
   0.57836529  0.60034081  0.52054365
   0.39193699  0.50633343  0.49625761
   0.44078554  0.51483809  0.50169625
   0.51030368  0.46423310  0.51404807
   0.52652042  0.43187188  0.47831656
   0.54836924  0.49772261  0.52047945
   0.57801594  0.56894294  0.50196135
   0.46541721  0.47705358  0.50000712
   0.54103247  0.54129618  0.51490396
   0.45496731  0.55326695  0.50810537
   0.58559672  0.48120262  0.52781412
 
 position of ions in cartesian coordinates  (Angst):
  11.24792607 16.15251458 14.93768635
  11.55375342 14.68634426 13.93417791
  11.43005189 14.54031734 15.70820243
  13.45065224 13.50723957 14.63147029
  15.21999194 13.41307687 16.39107848
  16.86784607 12.80043952 14.48645065
  15.61803355 13.39858526 13.36189270
  15.24963107 12.00804445 14.41028635
  15.24429812 16.58006634 15.36941018
  18.26089814 16.49952333 15.24445596
  17.26525403 17.26259536 13.97916743
  17.35095858 18.01022428 15.61630956
  11.75810966 15.19000292 14.88772822
  13.22356605 15.44514260 15.05088748
  15.30911048 13.92699289 15.42144220
  15.79561246 12.95615628 14.34949672
  16.45107710 14.93167839 15.61438349
  17.34047818 17.06828822 15.05884063
  13.96251625 14.31160744 15.00021360
  16.23097418 16.23888555 15.44711883
  13.64901921 16.59800865 15.24316105
  17.56790153 14.43607858 15.83442361
 


--------------------------------------------------------------------------------------------------------


 k-point  1 :   0.2500 0.2500 0.2500  plane waves:  490454
 k-point  2 :  -0.2500 0.2500 0.2500  plane waves:  490454
 k-point  3 :   0.2500-0.2500 0.2500  plane waves:  490454
 k-point  4 :  -0.2500-0.2500 0.2500  plane waves:  490454

 maximum and minimum number of plane-waves per node :    490454   490454

 maximum number of plane-waves:    490454
 maximum index in each direction: 
   IXMAX=   49   IYMAX=   49   IZMAX=   48
   IXMIN=  -49   IYMIN=  -49   IZMIN=  -49

 WARNING: aliasing errors must be expected set NGX to 198 to avoid them
 WARNING: aliasing errors must be expected set NGY to 198 to avoid them
 WARNING: aliasing errors must be expected set NGZ to 196 to avoid them
 aliasing errors are usually negligible using standard VASP settings
 and one can safely disregard these warnings

 serial   3D FFT for wavefunctions
 parallel 3D FFT for charge:
    minimum data exchange during FFTs selected (reduces bandwidth)


 total amount of memory used by VASP on root node  4333706. kBytes
========================================================================

   base      :      30000. kBytes
   nonlr-proj:       2401. kBytes
   fftplans  :     924480. kBytes
   grid      :    2089440. kBytes
   one-center:         67. kBytes
   wavefun   :    1287318. kBytes
 
     INWAV:  cpu time    0.0010: real time    0.0003
 Broyden mixing: mesh for mixing (old mesh)
   NGX = 97   NGY = 97   NGZ = 97
  (NGX  =300   NGY  =300   NGZ  =300)
  gives a total of 912673 points

 initial charge density was supplied:
 charge density of overlapping atoms calculated
 number of electron      58.0000000 magnetization 
 keeping initial charge density in first step


--------------------------------------------------------------------------------------------------------


 Maximum index for non-local projection operator         2276
 Maximum index for augmentation-charges         1588 (set IRDMAX)


--------------------------------------------------------------------------------------------------------


 First call to EWALD:  gamma=   0.059
 Maximum number of real-space cells 3x 3x 3
 Maximum number of reciprocal cells 3x 3x 3

 FEWALD executed in parallel
    FEWALD:  cpu time    0.0050: real time    0.0047


----------------------------------------- Iteration    1(   1)  ---------------------------------------


    POTLOK:  cpu time   19.2511: real time   19.2364
    SETDIJ:  cpu time    0.0280: real time    0.0281
     EDDAV:  cpu time  250.6039: real time  250.3945
       DOS:  cpu time    0.0000: real time    0.0009
    --------------------------------------------
      LOOP:  cpu time  269.8870: real time  269.6642

 eigenvalue-minimisations  :   392
 total energy-change (2. order) : 0.6132058E+03  (-0.7998793E+03)
 number of electron      58.0000000 magnetization 
 augmentation part       58.0000000 magnetization 

 Free energy of the ion-electron system (eV)
  ---------------------------------------------------
  alpha Z        PSCENC =         0.51957394
  Ewald energy   TEWEN  =      6155.95375086
  -Hartree energ DENC   =     -7892.67532882
  -exchange      EXHF   =         0.00000000
  -V(xc)+E(xc)   XCENC  =       202.64509303
  PAW double counting   =      1779.70502452    -1789.20730229
  entropy T*S    EENTRO =        -0.79921648
  eigenvalues    EBANDS =      -268.91908431
  atomic energy  EATOM  =      2425.98333211
  Solvation  Ediel_sol  =         0.00000000
  ---------------------------------------------------
  free energy    TOTEN  =       613.20584256 eV

  energy without entropy =      614.00505904  energy(sigma->0) =      613.60545080


--------------------------------------------------------------------------------------------------------




----------------------------------------- Iteration    1(   2)  ---------------------------------------


     EDDAV:  cpu time  347.9831: real time  347.6941
       DOS:  cpu time    0.0000: real time    0.0008
    --------------------------------------------
      LOOP:  cpu time  347.9851: real time  347.6973

 eigenvalue-minimisations  :   586
 total energy-change (2. order) :-0.3432029E+03  (-0.3329603E+03)
 number of electron      58.0000000 magnetization 
 augmentation part       58.0000000 magnetization 

 Free energy of the ion-electron system (eV)
  ---------------------------------------------------
  alpha Z        PSCENC =         0.51957394
  Ewald energy   TEWEN  =      6155.95375086
  -Hartree energ DENC   =     -7892.67532882
  -exchange      EXHF   =         0.00000000
  -V(xc)+E(xc)   XCENC  =       202.64509303
  PAW double counting   =      1779.70502452    -1789.20730229
  entropy T*S    EENTRO =        -0.47541100
  eigenvalues    EBANDS =      -612.44578305
  atomic energy  EATOM  =      2425.98333211
  Solvation  Ediel_sol  =         0.00000000
  ---------------------------------------------------
  free energy    TOTEN  =       270.00294930 eV

  energy without entropy =      270.47836030  energy(sigma->0) =      270.24065480


--------------------------------------------------------------------------------------------------------




----------------------------------------- Iteration    1(   3)  ---------------------------------------


     EDDAV:  cpu time  301.7741: real time  301.5231
       DOS:  cpu time    0.0000: real time    0.0006
    --------------------------------------------
      LOOP:  cpu time  301.7751: real time  301.5263

 eigenvalue-minimisations  :   496
 total energy-change (2. order) :-0.3143981E+03  (-0.3053688E+03)
 number of electron      58.0000000 magnetization 
 augmentation part       58.0000000 magnetization 

 Free energy of the ion-electron system (eV)
  ---------------------------------------------------
  alpha Z        PSCENC =         0.51957394
  Ewald energy   TEWEN  =      6155.95375086
  -Hartree energ DENC   =     -7892.67532882
  -exchange      EXHF   =         0.00000000
  -V(xc)+E(xc)   XCENC  =       202.64509303
  PAW double counting   =      1779.70502452    -1789.20730229
  entropy T*S    EENTRO =        -0.00046983
  eigenvalues    EBANDS =      -927.31879349
  atomic energy  EATOM  =      2425.98333211
  Solvation  Ediel_sol  =         0.00000000
  ---------------------------------------------------
  free energy    TOTEN  =       -44.39511997 eV

  energy without entropy =      -44.39465014  energy(sigma->0) =      -44.39488505


--------------------------------------------------------------------------------------------------------




----------------------------------------- Iteration    1(   4)  ---------------------------------------


     EDDAV:  cpu time  251.0048: real time  250.7958
       DOS:  cpu time    0.0000: real time    0.0005
    --------------------------------------------
      LOOP:  cpu time  251.0058: real time  250.7995

 eigenvalue-minimisations  :   396
 total energy-change (2. order) :-0.9184130E+02  (-0.9169269E+02)
 number of electron      58.0000000 magnetization 
 augmentation part       58.0000000 magnetization 

 Free energy of the ion-electron system (eV)
  ---------------------------------------------------
  alpha Z        PSCENC =         0.51957394
  Ewald energy   TEWEN  =      6155.95375086
  -Hartree energ DENC   =     -7892.67532882
  -exchange      EXHF   =         0.00000000
  -V(xc)+E(xc)   XCENC  =       202.64509303
  PAW double counting   =      1779.70502452    -1789.20730229
  entropy T*S    EENTRO =         0.00000000
  eigenvalues    EBANDS =     -1019.16055934
  atomic energy  EATOM  =      2425.98333211
  Solvation  Ediel_sol  =         0.00000000
  ---------------------------------------------------
  free energy    TOTEN  =      -136.23641599 eV

  energy without entropy =     -136.23641599  energy(sigma->0) =     -136.23641599


--------------------------------------------------------------------------------------------------------




----------------------------------------- Iteration    1(   5)  ---------------------------------------


     EDDAV:  cpu time  285.5916: real time  285.3547
       DOS:  cpu time    0.0000: real time    0.0005
    CHARGE:  cpu time   16.3725: real time   16.3586
    MIXING:  cpu time    0.5879: real time    0.5877
    --------------------------------------------
      LOOP:  cpu time  302.5540: real time  302.3039

 eigenvalue-minimisations  :   464
 total energy-change (2. order) :-0.5366336E+01  (-0.5355555E+01)
 number of electron      57.9999903 magnetization 
 augmentation part        2.9819921 magnetization 

 Broyden mixing:
  rms(total) = 0.19692E+01    rms(broyden)= 0.19670E+01
  rms(prec ) = 0.20450E+01
  weight for this iteration     100.00

 Free energy of the ion-electron system (eV)
  ---------------------------------------------------
  alpha Z        PSCENC =         0.51957394
  Ewald energy   TEWEN  =      6155.95375086
  -Hartree energ DENC   =     -7892.67532882
  -exchange      EXHF   =         0.00000000
  -V(xc)+E(xc)   XCENC  =       202.64509303
  PAW double counting   =      1779.70502452    -1789.20730229
  entropy T*S    EENTRO =         0.00000000
  eigenvalues    EBANDS =     -1024.52689546
  atomic energy  EATOM  =      2425.98333211
  Solvation  Ediel_sol  =         0.00000000
  ---------------------------------------------------
  free energy    TOTEN  =      -141.60275211 eV

  energy without entropy =     -141.60275211  energy(sigma->0) =     -141.60275211


--------------------------------------------------------------------------------------------------------




----------------------------------------- Iteration    1(   6)  ---------------------------------------


    POTLOK:  cpu time   18.1412: real time   18.1266
    SETDIJ:  cpu time    0.0290: real time    0.0284
     EDDAV:  cpu time  261.3143: real time  261.0970
       DOS:  cpu time    0.0000: real time    0.0005
    CHARGE:  cpu time   16.3575: real time   16.3439
    MIXING:  cpu time    0.6269: real time    0.6259
    --------------------------------------------
      LOOP:  cpu time  296.4709: real time  296.2252

 eigenvalue-minimisations  :   413
 total energy-change (2. order) : 0.1033152E+02  (-0.2378192E+01)
 number of electron      57.9999916 magnetization 
 augmentation part        2.6515923 magnetization 

 Broyden mixing:
  rms(total) = 0.10046E+01    rms(broyden)= 0.10041E+01
  rms(prec ) = 0.10330E+01
  weight for this iteration     100.00

 eigenvalues of (default mixing * dielectric matrix)
  average eigenvalue GAMMA=   1.2992
  1.2992

 Free energy of the ion-electron system (eV)
  ---------------------------------------------------
  alpha Z        PSCENC =         0.51957394
  Ewald energy   TEWEN  =      6155.95375086
  -Hartree energ DENC   =     -8008.72082490
  -exchange      EXHF   =         0.00000000
  -V(xc)+E(xc)   XCENC  =       208.71414591
  PAW double counting   =      2793.69901632    -2804.57171426
  entropy T*S    EENTRO =         0.00000000
  eigenvalues    EBANDS =      -902.84851585
  atomic energy  EATOM  =      2425.98333211
  Solvation  Ediel_sol  =         0.00000000
  ---------------------------------------------------
  free energy    TOTEN  =      -131.27123587 eV

  energy without entropy =     -131.27123587  energy(sigma->0) =     -131.27123587


--------------------------------------------------------------------------------------------------------




----------------------------------------- Iteration    1(   7)  ---------------------------------------


    POTLOK:  cpu time   18.2652: real time   18.2504
    SETDIJ:  cpu time    0.0280: real time    0.0283
     EDDAV:  cpu time  263.9849: real time  263.7648
       DOS:  cpu time    0.0000: real time    0.0005
    CHARGE:  cpu time   16.3995: real time   16.3865
    MIXING:  cpu time    0.6579: real time    0.6561
    --------------------------------------------
      LOOP:  cpu time  299.3365: real time  299.0900

 eigenvalue-minimisations  :   416
 total energy-change (2. order) : 0.1833388E+01  (-0.4536531E+00)
 number of electron      57.9999913 magnetization 
 augmentation part        2.6312717 magnetization 

 Broyden mixing:
  rms(total) = 0.51383E+00    rms(broyden)= 0.51371E+00
  rms(prec ) = 0.52627E+00
  weight for this iteration     100.00

 eigenvalues of (default mixing * dielectric matrix)
  average eigenvalue GAMMA=   1.5984
  1.1340  2.0627

 Free energy of the ion-electron system (eV)
  ---------------------------------------------------
  alpha Z        PSCENC =         0.51957394
  Ewald energy   TEWEN  =      6155.95375086
  -Hartree energ DENC   =     -8073.23860197
  -exchange      EXHF   =         0.00000000
  -V(xc)+E(xc)   XCENC  =       211.87297086
  PAW double counting   =      3807.25082357    -3818.43111350
  entropy T*S    EENTRO =         0.00000000
  eigenvalues    EBANDS =      -839.34858347
  atomic energy  EATOM  =      2425.98333211
  Solvation  Ediel_sol  =         0.00000000
  ---------------------------------------------------
  free energy    TOTEN  =      -129.43784760 eV

  energy without entropy =     -129.43784760  energy(sigma->0) =     -129.43784760


--------------------------------------------------------------------------------------------------------




----------------------------------------- Iteration    1(   8)  ---------------------------------------


    POTLOK:  cpu time   18.1982: real time   18.1825
    SETDIJ:  cpu time    0.0280: real time    0.0284
     EDDAV:  cpu time  280.5943: real time  280.3608
       DOS:  cpu time    0.0010: real time    0.0005
    CHARGE:  cpu time   16.4075: real time   16.3940
    MIXING:  cpu time    0.6789: real time    0.6781
    --------------------------------------------
      LOOP:  cpu time  315.9080: real time  315.6472

 eigenvalue-minimisations  :   448
 total energy-change (2. order) : 0.4911186E+00  (-0.8576066E-01)
 number of electron      57.9999915 magnetization 
 augmentation part        2.6058026 magnetization 

 Broyden mixing:
  rms(total) = 0.14576E+00    rms(broyden)= 0.14568E+00
  rms(prec ) = 0.15350E+00
  weight for this iteration     100.00

 eigenvalues of (default mixing * dielectric matrix)
  average eigenvalue GAMMA=   1.5490
  2.3858  0.9635  1.2977

 Free energy of the ion-electron system (eV)
  ---------------------------------------------------
  alpha Z        PSCENC =         0.51957394
  Ewald energy   TEWEN  =      6155.95375086
  -Hartree energ DENC   =     -8114.19808283
  -exchange      EXHF   =         0.00000000
  -V(xc)+E(xc)   XCENC  =       213.99416959
  PAW double counting   =      4658.46899023    -4669.83013404
  entropy T*S    EENTRO =         0.00000000
  eigenvalues    EBANDS =      -799.83832881
  atomic energy  EATOM  =      2425.98333211
  Solvation  Ediel_sol  =         0.00000000
  ---------------------------------------------------
  free energy    TOTEN  =      -128.94672896 eV

  energy without entropy =     -128.94672896  energy(sigma->0) =     -128.94672896


--------------------------------------------------------------------------------------------------------




----------------------------------------- Iteration    1(   9)  ---------------------------------------


    POTLOK:  cpu time   18.2872: real time   18.2728
    SETDIJ:  cpu time    0.0290: real time    0.0284
     EDDAV:  cpu time  289.1460: real time  288.9064
       DOS:  cpu time    0.0000: real time    0.0005
    CHARGE:  cpu time   16.4705: real time   16.4570
    MIXING:  cpu time    0.7199: real time    0.7184
    --------------------------------------------
      LOOP:  cpu time  324.6546: real time  324.3868

 eigenvalue-minimisations  :   464
 total energy-change (2. order) : 0.6515626E-01  (-0.9050271E-02)
 number of electron      57.9999915 magnetization 
 augmentation part        2.5982572 magnetization 

 Broyden mixing:
  rms(total) = 0.55205E-01    rms(broyden)= 0.55178E-01
  rms(prec ) = 0.63902E-01
  weight for this iteration     100.00

 eigenvalues of (default mixing * dielectric matrix)
  average eigenvalue GAMMA=   1.5300
  2.1841  1.0597  1.0597  1.8166

 Free energy of the ion-electron system (eV)
  ---------------------------------------------------
  alpha Z        PSCENC =         0.51957394
  Ewald energy   TEWEN  =      6155.95375086
  -Hartree energ DENC   =     -8127.15684812
  -exchange      EXHF   =         0.00000000
  -V(xc)+E(xc)   XCENC  =       214.51011117
  PAW double counting   =      4878.32630783    -4889.65870091
  entropy T*S    EENTRO =         0.00000000
  eigenvalues    EBANDS =      -787.35909958
  atomic energy  EATOM  =      2425.98333211
  Solvation  Ediel_sol  =         0.00000000
  ---------------------------------------------------
  free energy    TOTEN  =      -128.88157270 eV

  energy without entropy =     -128.88157270  energy(sigma->0) =     -128.88157270


--------------------------------------------------------------------------------------------------------




----------------------------------------- Iteration    1(  10)  ---------------------------------------


    POTLOK:  cpu time   18.2792: real time   18.2651
    SETDIJ:  cpu time    0.0300: real time    0.0284
     EDDAV:  cpu time  278.8776: real time  278.6462
       DOS:  cpu time    0.0000: real time    0.0005
    CHARGE:  cpu time   16.3765: real time   16.3627
    MIXING:  cpu time    0.7789: real time    0.7778
    --------------------------------------------
      LOOP:  cpu time  314.3432: real time  314.0840

 eigenvalue-minimisations  :   444
 total energy-change (2. order) : 0.1227506E-01  (-0.2157568E-02)
 number of electron      57.9999914 magnetization 
 augmentation part        2.6029673 magnetization 

 Broyden mixing:
  rms(total) = 0.25443E-01    rms(broyden)= 0.25421E-01
  rms(prec ) = 0.35406E-01
  weight for this iteration     100.00

 eigenvalues of (default mixing * dielectric matrix)
  average eigenvalue GAMMA=   1.5017
  2.1730  2.1730  1.0103  1.0103  1.1421

 Free energy of the ion-electron system (eV)
  ---------------------------------------------------
  alpha Z        PSCENC =         0.51957394
  Ewald energy   TEWEN  =      6155.95375086
  -Hartree energ DENC   =     -8132.46175639
  -exchange      EXHF   =         0.00000000
  -V(xc)+E(xc)   XCENC  =       214.53717884
  PAW double counting   =      4872.90629410    -4884.18985581
  entropy T*S    EENTRO =         0.00000000
  eigenvalues    EBANDS =      -782.11781530
  atomic energy  EATOM  =      2425.98333211
  Solvation  Ediel_sol  =         0.00000000
  ---------------------------------------------------
  free energy    TOTEN  =      -128.86929764 eV

  energy without entropy =     -128.86929764  energy(sigma->0) =     -128.86929764


--------------------------------------------------------------------------------------------------------




----------------------------------------- Iteration    1(  11)  ---------------------------------------


    POTLOK:  cpu time   18.2322: real time   18.2166
    SETDIJ:  cpu time    0.0280: real time    0.0284
     EDDAV:  cpu time  281.0423: real time  280.8084
       DOS:  cpu time    0.0000: real time    0.0005
    CHARGE:  cpu time   16.3855: real time   16.3717
    MIXING:  cpu time    0.7949: real time    0.7946
    --------------------------------------------
      LOOP:  cpu time  316.4839: real time  316.2237

 eigenvalue-minimisations  :   448
 total energy-change (2. order) : 0.5611105E-02  (-0.7328880E-03)
 number of electron      57.9999915 magnetization 
 augmentation part        2.5991448 magnetization 

 Broyden mixing:
  rms(total) = 0.15909E-01    rms(broyden)= 0.15900E-01
  rms(prec ) = 0.24552E-01
  weight for this iteration     100.00

 eigenvalues of (default mixing * dielectric matrix)
  average eigenvalue GAMMA=   1.5599
  2.5007  2.5007  0.9506  0.9506  1.2283  1.2283

 Free energy of the ion-electron system (eV)
  ---------------------------------------------------
  alpha Z        PSCENC =         0.51957394
  Ewald energy   TEWEN  =      6155.95375086
  -Hartree energ DENC   =     -8138.43562115
  -exchange      EXHF   =         0.00000000
  -V(xc)+E(xc)   XCENC  =       214.64388840
  PAW double counting   =      4875.78412168    -4887.06627344
  entropy T*S    EENTRO =         0.00000000
  eigenvalues    EBANDS =      -776.24645894
  atomic energy  EATOM  =      2425.98333211
  Solvation  Ediel_sol  =         0.00000000
  ---------------------------------------------------
  free energy    TOTEN  =      -128.86368654 eV

  energy without entropy =     -128.86368654  energy(sigma->0) =     -128.86368654


--------------------------------------------------------------------------------------------------------




----------------------------------------- Iteration    1(  12)  ---------------------------------------


    POTLOK:  cpu time   18.2992: real time   18.2837
    SETDIJ:  cpu time    0.0280: real time    0.0284
     EDDAV:  cpu time  274.2183: real time  273.9903
       DOS:  cpu time    0.0010: real time    0.0005
    CHARGE:  cpu time   16.3545: real time   16.3413
    MIXING:  cpu time    0.8369: real time    0.8360
    --------------------------------------------
      LOOP:  cpu time  309.7389: real time  309.4830

 eigenvalue-minimisations  :   434
 total energy-change (2. order) :-0.9811937E-04  (-0.5447865E-03)
 number of electron      57.9999915 magnetization 
 augmentation part        2.5988399 magnetization 

 Broyden mixing:
  rms(total) = 0.95947E-02    rms(broyden)= 0.95905E-02
  rms(prec ) = 0.15676E-01
  weight for this iteration     100.00

 eigenvalues of (default mixing * dielectric matrix)
  average eigenvalue GAMMA=   1.5958
  2.7314  2.7314  1.2760  1.2420  1.2420  0.9738  0.9738

 Free energy of the ion-electron system (eV)
  ---------------------------------------------------
  alpha Z        PSCENC =         0.51957394
  Ewald energy   TEWEN  =      6155.95375086
  -Hartree energ DENC   =     -8145.01875705
  -exchange      EXHF   =         0.00000000
  -V(xc)+E(xc)   XCENC  =       214.72857271
  PAW double counting   =      4871.53105555    -4882.80289193
  entropy T*S    EENTRO =         0.00000000
  eigenvalues    EBANDS =      -769.75842084
  atomic energy  EATOM  =      2425.98333211
  Solvation  Ediel_sol  =         0.00000000
  ---------------------------------------------------
  free energy    TOTEN  =      -128.86378466 eV

  energy without entropy =     -128.86378466  energy(sigma->0) =     -128.86378466


--------------------------------------------------------------------------------------------------------




----------------------------------------- Iteration    1(  13)  ---------------------------------------


    POTLOK:  cpu time   18.3082: real time   18.2941
    SETDIJ:  cpu time    0.0290: real time    0.0284
     EDDAV:  cpu time  272.9125: real time  272.6852
       DOS:  cpu time    0.0000: real time    0.0005
    CHARGE:  cpu time   16.3405: real time   16.3274
    MIXING:  cpu time    0.9009: real time    0.8996
    --------------------------------------------
      LOOP:  cpu time  308.4931: real time  308.6104

 eigenvalue-minimisations  :   432
 total energy-change (2. order) :-0.6180790E-02  (-0.3796236E-03)
 number of electron      57.9999915 magnetization 
 augmentation part        2.5976632 magnetization 

 Broyden mixing:
  rms(total) = 0.58685E-02    rms(broyden)= 0.58628E-02
  rms(prec ) = 0.96542E-02
  weight for this iteration     100.00

 eigenvalues of (default mixing * dielectric matrix)
  average eigenvalue GAMMA=   1.7197
  4.1273  2.4888  1.5676  1.5676  1.0106  1.0106  0.9925  0.9925

 Free energy of the ion-electron system (eV)
  ---------------------------------------------------
  alpha Z        PSCENC =         0.51957394
  Ewald energy   TEWEN  =      6155.95375086
  -Hartree energ DENC   =     -8150.17508152
  -exchange      EXHF   =         0.00000000
  -V(xc)+E(xc)   XCENC  =       214.78626517
  PAW double counting   =      4865.16047014    -4876.43132728
  entropy T*S    EENTRO =         0.00000000
  eigenvalues    EBANDS =      -764.66694886
  atomic energy  EATOM  =      2425.98333211
  Solvation  Ediel_sol  =         0.00000000
  ---------------------------------------------------
  free energy    TOTEN  =      -128.86996545 eV

  energy without entropy =     -128.86996545  energy(sigma->0) =     -128.86996545


--------------------------------------------------------------------------------------------------------




----------------------------------------- Iteration    1(  14)  ---------------------------------------


    POTLOK:  cpu time   18.3412: real time   18.3264
    SETDIJ:  cpu time    0.0280: real time    0.0284
     EDDAV:  cpu time  267.7543: real time  267.5306
       DOS:  cpu time    0.0000: real time    0.0005
    CHARGE:  cpu time   16.3395: real time   16.3266
    MIXING:  cpu time    0.9429: real time    0.9425
    --------------------------------------------
      LOOP:  cpu time  303.4079: real time  303.1585

 eigenvalue-minimisations  :   422
 total energy-change (2. order) :-0.7009919E-02  (-0.1914869E-03)
 number of electron      57.9999915 magnetization 
 augmentation part        2.5967919 magnetization 

 Broyden mixing:
  rms(total) = 0.37015E-02    rms(broyden)= 0.36970E-02
  rms(prec ) = 0.57235E-02
  weight for this iteration     100.00

 eigenvalues of (default mixing * dielectric matrix)
  average eigenvalue GAMMA=   1.8328
  5.0833  2.3684  2.3684  1.3269  1.1876  1.1876  1.0089  0.9820  0.9820

 Free energy of the ion-electron system (eV)
  ---------------------------------------------------
  alpha Z        PSCENC =         0.51957394
  Ewald energy   TEWEN  =      6155.95375086
  -Hartree energ DENC   =     -8153.91701563
  -exchange      EXHF   =         0.00000000
  -V(xc)+E(xc)   XCENC  =       214.81491985
  PAW double counting   =      4860.50920898    -4871.77751717
  entropy T*S    EENTRO =         0.00000000
  eigenvalues    EBANDS =      -760.96322829
  atomic energy  EATOM  =      2425.98333211
  Solvation  Ediel_sol  =         0.00000000
  ---------------------------------------------------
  free energy    TOTEN  =      -128.87697537 eV

  energy without entropy =     -128.87697537  energy(sigma->0) =     -128.87697537


--------------------------------------------------------------------------------------------------------




----------------------------------------- Iteration    1(  15)  ---------------------------------------


    POTLOK:  cpu time   18.3412: real time   18.3261
    SETDIJ:  cpu time    0.0290: real time    0.0283
     EDDAV:  cpu time  245.2807: real time  245.0770
       DOS:  cpu time    0.0010: real time    0.0005
    CHARGE:  cpu time   16.3755: real time   16.3621
    MIXING:  cpu time    0.9968: real time    0.9962
    --------------------------------------------
      LOOP:  cpu time  281.0253: real time  280.7928

 eigenvalue-minimisations  :   378
 total energy-change (2. order) :-0.7725059E-02  (-0.8868394E-04)
 number of electron      57.9999915 magnetization 
 augmentation part        2.5967552 magnetization 

 Broyden mixing:
  rms(total) = 0.24396E-02    rms(broyden)= 0.24377E-02
  rms(prec ) = 0.35347E-02
  weight for this iteration     100.00

 eigenvalues of (default mixing * dielectric matrix)
  average eigenvalue GAMMA=   1.9078
  5.6395  2.7706  2.2610  1.8521  1.5089  1.0117  1.0117  0.9260  1.0482  1.0482

 Free energy of the ion-electron system (eV)
  ---------------------------------------------------
  alpha Z        PSCENC =         0.51957394
  Ewald energy   TEWEN  =      6155.95375086
  -Hartree energ DENC   =     -8155.60928774
  -exchange      EXHF   =         0.00000000
  -V(xc)+E(xc)   XCENC  =       214.81405113
  PAW double counting   =      4859.88519426    -4871.15240817
  entropy T*S    EENTRO =         0.00000000
  eigenvalues    EBANDS =      -759.27890682
  atomic energy  EATOM  =      2425.98333211
  Solvation  Ediel_sol  =         0.00000000
  ---------------------------------------------------
  free energy    TOTEN  =      -128.88470042 eV

  energy without entropy =     -128.88470042  energy(sigma->0) =     -128.88470042


--------------------------------------------------------------------------------------------------------




----------------------------------------- Iteration    1(  16)  ---------------------------------------


    POTLOK:  cpu time   18.4282: real time   18.4130
    SETDIJ:  cpu time    0.0280: real time    0.0284
     EDDAV:  cpu time  247.5054: real time  247.2996
       DOS:  cpu time    0.0000: real time    0.0005
    CHARGE:  cpu time   16.2815: real time   16.2679
    MIXING:  cpu time    1.0448: real time    1.0439
    --------------------------------------------
      LOOP:  cpu time  283.2899: real time  283.0568

 eigenvalue-minimisations  :   382
 total energy-change (2. order) :-0.5880014E-02  (-0.4597529E-04)
 number of electron      57.9999915 magnetization 
 augmentation part        2.5967248 magnetization 

 Broyden mixing:
  rms(total) = 0.13208E-02    rms(broyden)= 0.13203E-02
  rms(prec ) = 0.19685E-02
  weight for this iteration     100.00

 eigenvalues of (default mixing * dielectric matrix)
  average eigenvalue GAMMA=   1.9627
  6.3767  3.1875  2.3667  1.9889  1.3101  1.3101  1.0117  1.0117  0.9552  1.0355
  1.0355

 Free energy of the ion-electron system (eV)
  ---------------------------------------------------
  alpha Z        PSCENC =         0.51957394
  Ewald energy   TEWEN  =      6155.95375086
  -Hartree energ DENC   =     -8156.22319466
  -exchange      EXHF   =         0.00000000
  -V(xc)+E(xc)   XCENC  =       214.80371937
  PAW double counting   =      4859.50998738    -4870.77686121
  entropy T*S    EENTRO =         0.00000000
  eigenvalues    EBANDS =      -758.66088823
  atomic energy  EATOM  =      2425.98333211
  Solvation  Ediel_sol  =         0.00000000
  ---------------------------------------------------
  free energy    TOTEN  =      -128.89058044 eV

  energy without entropy =     -128.89058044  energy(sigma->0) =     -128.89058044


--------------------------------------------------------------------------------------------------------




----------------------------------------- Iteration    1(  17)  ---------------------------------------


    POTLOK:  cpu time   18.3112: real time   18.2969
    SETDIJ:  cpu time    0.0290: real time    0.0284
     EDDAV:  cpu time  213.8695: real time  213.6906
       DOS:  cpu time    0.0000: real time    0.0005
    CHARGE:  cpu time   16.3625: real time   16.3496
    MIXING:  cpu time    1.1038: real time    1.1017
    --------------------------------------------
      LOOP:  cpu time  249.6770: real time  249.4712

 eigenvalue-minimisations  :   314
 total energy-change (2. order) :-0.2459826E-02  (-0.1153387E-04)
 number of electron      57.9999915 magnetization 
 augmentation part        2.5966648 magnetization 

 Broyden mixing:
  rms(total) = 0.86251E-03    rms(broyden)= 0.86224E-03
  rms(prec ) = 0.12767E-02
  weight for this iteration     100.00

 eigenvalues of (default mixing * dielectric matrix)
  average eigenvalue GAMMA=   2.0469
  7.1266  3.6951  2.2788  2.2788  1.5452  1.5452  1.0447  1.0447  1.0278  1.0278
  0.9740  0.9740

 Free energy of the ion-electron system (eV)
  ---------------------------------------------------
  alpha Z        PSCENC =         0.51957394
  Ewald energy   TEWEN  =      6155.95375086
  -Hartree energ DENC   =     -8156.51558838
  -exchange      EXHF   =         0.00000000
  -V(xc)+E(xc)   XCENC  =       214.80012108
  PAW double counting   =      4859.94113601    -4871.20779324
  entropy T*S    EENTRO =         0.00000000
  eigenvalues    EBANDS =      -758.36757264
  atomic energy  EATOM  =      2425.98333211
  Solvation  Ediel_sol  =         0.00000000
  ---------------------------------------------------
  free energy    TOTEN  =      -128.89304027 eV

  energy without entropy =     -128.89304027  energy(sigma->0) =     -128.89304027


--------------------------------------------------------------------------------------------------------




----------------------------------------- Iteration    1(  18)  ---------------------------------------


    POTLOK:  cpu time   18.2932: real time   18.2785
    SETDIJ:  cpu time    0.0290: real time    0.0285
     EDDAV:  cpu time  223.7720: real time  223.5853
       DOS:  cpu time    0.0010: real time    0.0005
    CHARGE:  cpu time   16.2715: real time   16.2582
    MIXING:  cpu time    1.1768: real time    1.1763
    --------------------------------------------
      LOOP:  cpu time  259.5435: real time  259.3304

 eigenvalue-minimisations  :   334
 total energy-change (2. order) :-0.1862635E-02  (-0.1264799E-04)
 number of electron      57.9999915 magnetization 
 augmentation part        2.5966731 magnetization 

 Broyden mixing:
  rms(total) = 0.52789E-03    rms(broyden)= 0.52775E-03
  rms(prec ) = 0.74728E-03
  weight for this iteration     100.00

 eigenvalues of (default mixing * dielectric matrix)
  average eigenvalue GAMMA=   2.1114
  7.6224  4.2963  2.4448  2.4448  1.7705  1.4273  1.4273  1.0625  1.0625  0.9976
  0.9976  0.9475  0.9475

 Free energy of the ion-electron system (eV)
  ---------------------------------------------------
  alpha Z        PSCENC =         0.51957394
  Ewald energy   TEWEN  =      6155.95375086
  -Hartree energ DENC   =     -8156.68368609
  -exchange      EXHF   =         0.00000000
  -V(xc)+E(xc)   XCENC  =       214.79658938
  PAW double counting   =      4860.00461468    -4871.27115301
  entropy T*S    EENTRO =         0.00000000
  eigenvalues    EBANDS =      -758.19792476
  atomic energy  EATOM  =      2425.98333211
  Solvation  Ediel_sol  =         0.00000000
  ---------------------------------------------------
  free energy    TOTEN  =      -128.89490290 eV

  energy without entropy =     -128.89490290  energy(sigma->0) =     -128.89490290


--------------------------------------------------------------------------------------------------------




----------------------------------------- Iteration    1(  19)  ---------------------------------------


    POTLOK:  cpu time   18.2762: real time   18.2608
    SETDIJ:  cpu time    0.0280: real time    0.0283
     EDDAV:  cpu time  234.3564: real time  234.1612
       DOS:  cpu time    0.0000: real time    0.0005
    CHARGE:  cpu time   16.3685: real time   16.3548
    MIXING:  cpu time    1.2288: real time    1.2277
    --------------------------------------------
      LOOP:  cpu time  270.2599: real time  270.0367

 eigenvalue-minimisations  :   354
 total energy-change (2. order) :-0.9053659E-03  (-0.5364534E-05)
 number of electron      57.9999915 magnetization 
 augmentation part        2.5966209 magnetization 

 Broyden mixing:
  rms(total) = 0.30588E-03    rms(broyden)= 0.30572E-03
  rms(prec ) = 0.42965E-03
  weight for this iteration     100.00

 eigenvalues of (default mixing * dielectric matrix)
  average eigenvalue GAMMA=   2.1509
  8.1136  4.7175  2.6419  2.6419  1.6776  1.6776  1.4415  1.0736  1.0736  1.0032
  1.0032  0.9192  1.0640  1.0640

 Free energy of the ion-electron system (eV)
  ---------------------------------------------------
  alpha Z        PSCENC =         0.51957394
  Ewald energy   TEWEN  =      6155.95375086
  -Hartree energ DENC   =     -8156.77472559
  -exchange      EXHF   =         0.00000000
  -V(xc)+E(xc)   XCENC  =       214.79647599
  PAW double counting   =      4860.28891399    -4871.55568938
  entropy T*S    EENTRO =         0.00000000
  eigenvalues    EBANDS =      -758.10744018
  atomic energy  EATOM  =      2425.98333211
  Solvation  Ediel_sol  =         0.00000000
  ---------------------------------------------------
  free energy    TOTEN  =      -128.89580827 eV

  energy without entropy =     -128.89580827  energy(sigma->0) =     -128.89580827


--------------------------------------------------------------------------------------------------------




----------------------------------------- Iteration    1(  20)  ---------------------------------------


    POTLOK:  cpu time   18.2562: real time   18.2408
    SETDIJ:  cpu time    0.0280: real time    0.0283
     EDDAV:  cpu time  233.1706: real time  232.9759
       DOS:  cpu time    0.0010: real time    0.0005
    CHARGE:  cpu time   16.3535: real time   16.3401
    MIXING:  cpu time    1.3008: real time    1.2996
    --------------------------------------------
      LOOP:  cpu time  269.1111: real time  268.8886

 eigenvalue-minimisations  :   352
 total energy-change (2. order) :-0.3875028E-03  (-0.1491055E-05)
 number of electron      57.9999915 magnetization 
 augmentation part        2.5966320 magnetization 

 Broyden mixing:
  rms(total) = 0.19063E-03    rms(broyden)= 0.19053E-03
  rms(prec ) = 0.26225E-03
  weight for this iteration     100.00

 eigenvalues of (default mixing * dielectric matrix)
  average eigenvalue GAMMA=   2.1487
  8.2959  5.2004  2.8719  2.4974  1.8315  1.8315  1.2830  1.2830  1.0373  1.0373
  1.0104  1.0104  0.9308  1.0546  1.0546

 Free energy of the ion-electron system (eV)
  ---------------------------------------------------
  alpha Z        PSCENC =         0.51957394
  Ewald energy   TEWEN  =      6155.95375086
  -Hartree energ DENC   =     -8156.79230932
  -exchange      EXHF   =         0.00000000
  -V(xc)+E(xc)   XCENC  =       214.79519007
  PAW double counting   =      4859.96325944    -4871.22989058
  entropy T*S    EENTRO =         0.00000000
  eigenvalues    EBANDS =      -758.08910229
  atomic energy  EATOM  =      2425.98333211
  Solvation  Ediel_sol  =         0.00000000
  ---------------------------------------------------
  free energy    TOTEN  =      -128.89619577 eV

  energy without entropy =     -128.89619577  energy(sigma->0) =     -128.89619577


--------------------------------------------------------------------------------------------------------




----------------------------------------- Iteration    1(  21)  ---------------------------------------


    POTLOK:  cpu time   18.2492: real time   18.2357
    SETDIJ:  cpu time    0.0290: real time    0.0284
     EDDAV:  cpu time  215.9812: real time  215.8006
       DOS:  cpu time    0.0000: real time    0.0005
    CHARGE:  cpu time   16.3735: real time   16.3596
    MIXING:  cpu time    1.3658: real time    1.3645
    --------------------------------------------
      LOOP:  cpu time  252.0007: real time  251.7920

 eigenvalue-minimisations  :   318
 total energy-change (2. order) :-0.1637590E-03  (-0.6415179E-06)
 number of electron      57.9999915 magnetization 
 augmentation part        2.5966161 magnetization 

 Broyden mixing:
  rms(total) = 0.12178E-03    rms(broyden)= 0.12172E-03
  rms(prec ) = 0.17185E-03
  weight for this iteration     100.00

 eigenvalues of (default mixing * dielectric matrix)
  average eigenvalue GAMMA=   2.2125
  8.5157  5.6953  3.3666  2.5840  2.3280  1.6517  1.6517  1.4029  1.0735  1.0735
  1.0293  1.0293  1.0613  1.0613  0.9814  0.8937

 Free energy of the ion-electron system (eV)
  ---------------------------------------------------
  alpha Z        PSCENC =         0.51957394
  Ewald energy   TEWEN  =      6155.95375086
  -Hartree energ DENC   =     -8156.80016622
  -exchange      EXHF   =         0.00000000
  -V(xc)+E(xc)   XCENC  =       214.79508096
  PAW double counting   =      4860.09206987    -4871.35871746
  entropy T*S    EENTRO =         0.00000000
  eigenvalues    EBANDS =      -758.08128359
  atomic energy  EATOM  =      2425.98333211
  Solvation  Ediel_sol  =         0.00000000
  ---------------------------------------------------
  free energy    TOTEN  =      -128.89635953 eV

  energy without entropy =     -128.89635953  energy(sigma->0) =     -128.89635953


--------------------------------------------------------------------------------------------------------




----------------------------------------- Iteration    1(  22)  ---------------------------------------


    POTLOK:  cpu time   18.2302: real time   18.2156
    SETDIJ:  cpu time    0.0290: real time    0.0283
     EDDAV:  cpu time  199.4767: real time  199.3114
       DOS:  cpu time    0.0000: real time    0.0005
    CHARGE:  cpu time   16.3435: real time   16.3303
    MIXING:  cpu time    1.4308: real time    1.4293
    --------------------------------------------
      LOOP:  cpu time  235.5112: real time  235.3222

 eigenvalue-minimisations  :   287
 total energy-change (2. order) :-0.1448922E-03  (-0.3525256E-06)
 number of electron      57.9999915 magnetization 
 augmentation part        2.5966178 magnetization 

 Broyden mixing:
  rms(total) = 0.90336E-04    rms(broyden)= 0.90288E-04
  rms(prec ) = 0.11067E-03
  weight for this iteration     100.00

 eigenvalues of (default mixing * dielectric matrix)
  average eigenvalue GAMMA=   2.2133
  8.5580  6.1308  3.6250  2.5370  2.5370  1.7448  1.7448  1.2763  1.2763  1.0469
  1.0469  0.9893  0.9893  1.1242  1.1242  0.9374  0.9374

 Free energy of the ion-electron system (eV)
  ---------------------------------------------------
  alpha Z        PSCENC =         0.51957394
  Ewald energy   TEWEN  =      6155.95375086
  -Hartree energ DENC   =     -8156.81471322
  -exchange      EXHF   =         0.00000000
  -V(xc)+E(xc)   XCENC  =       214.79483281
  PAW double counting   =      4860.00641602    -4871.27306565
  entropy T*S    EENTRO =         0.00000000
  eigenvalues    EBANDS =      -758.06663130
  atomic energy  EATOM  =      2425.98333211
  Solvation  Ediel_sol  =         0.00000000
  ---------------------------------------------------
  free energy    TOTEN  =      -128.89650442 eV

  energy without entropy =     -128.89650442  energy(sigma->0) =     -128.89650442


--------------------------------------------------------------------------------------------------------




----------------------------------------- Iteration    1(  23)  ---------------------------------------


    POTLOK:  cpu time   18.2332: real time   18.2186
    SETDIJ:  cpu time    0.0290: real time    0.0284
     EDDAV:  cpu time  240.7224: real time  240.5226
       DOS:  cpu time    0.0000: real time    0.0005
    --------------------------------------------
      LOOP:  cpu time  258.9866: real time  258.7764

 eigenvalue-minimisations  :   368
 total energy-change (2. order) :-0.4049800E-04  (-0.8764046E-07)
 number of electron      57.9999915 magnetization 
 augmentation part        2.5966178 magnetization 

 Free energy of the ion-electron system (eV)
  ---------------------------------------------------
  alpha Z        PSCENC =         0.51957394
  Ewald energy   TEWEN  =      6155.95375086
  -Hartree energ DENC   =     -8156.82264202
  -exchange      EXHF   =         0.00000000
  -V(xc)+E(xc)   XCENC  =       214.79480644
  PAW double counting   =      4860.02964829    -4871.29630251
  entropy T*S    EENTRO =         0.00000000
  eigenvalues    EBANDS =      -758.05871202
  atomic energy  EATOM  =      2425.98333211
  Solvation  Ediel_sol  =         0.00000000
  ---------------------------------------------------
  free energy    TOTEN  =      -128.89654492 eV

  energy without entropy =     -128.89654492  energy(sigma->0) =     -128.89654492


--------------------------------------------------------------------------------------------------------




 average (electrostatic) potential at core
  the test charge radii are     0.5201  0.6991  0.7089  0.7215
  (the norm of the test charge is              1.0000)
       1 -42.4182       2 -42.7606       3 -42.6876       4 -44.8250       5 -42.3594
       6 -41.7021       7 -42.0215       8 -42.1247       9 -42.8347      10 -41.5135
      11 -41.7129      12 -41.7512      13 -59.1477      14 -61.6551      15 -60.0590
      16 -58.6094      17 -60.7479      18 -58.8774      19 -74.8641      20 -73.6415
      21 -80.2276      22 -79.1244
 
 
 
 E-fermi :  -4.5574     XC(G=0):  -0.1512     alpha+bet : -0.0465


 k-point     1 :       0.2500    0.2500    0.2500
  band No.  band energies     occupation 
      1     -26.4408      2.00000
      2     -25.5258      2.00000
      3     -23.7522      2.00000
      4     -22.5857      2.00000
      5     -19.8689      2.00000
      6     -18.3588      2.00000
      7     -17.3362      2.00000
      8     -15.9135      2.00000
      9     -15.1384      2.00000
     10     -13.9691      2.00000
     11     -13.0528      2.00000
     12     -12.6355      2.00000
     13     -11.9900      2.00000
     14     -11.4305      2.00000
     15     -11.2300      2.00000
     16     -10.6235      2.00000
     17     -10.3699      2.00000
     18     -10.2528      2.00000
     19     -10.0299      2.00000
     20      -9.8709      2.00000
     21      -9.3750      2.00000
     22      -9.1448      2.00000
     23      -8.8774      2.00000
     24      -8.8004      2.00000
     25      -8.3703      2.00000
     26      -6.6073      2.00000
     27      -6.3620      2.00000
     28      -5.5811      2.00000
     29      -5.5357      2.00000
     30      -1.2872      0.00000
     31      -1.0545      0.00000
     32      -0.5119      0.00000
     33      -0.2132      0.00000
     34      -0.1454      0.00000
     35      -0.0453      0.00000
     36       0.0094      0.00000
     37       0.0830      0.00000
     38       0.1057      0.00000
     39       0.1125      0.00000
     40       0.1546      0.00000
     41       0.1779      0.00000

 k-point     2 :      -0.2500    0.2500    0.2500
  band No.  band energies     occupation 
      1     -26.4408      2.00000
      2     -25.5258      2.00000
      3     -23.7522      2.00000
      4     -22.5857      2.00000
      5     -19.8689      2.00000
      6     -18.3588      2.00000
      7     -17.3362      2.00000
      8     -15.9135      2.00000
      9     -15.1384      2.00000
     10     -13.9691      2.00000
     11     -13.0528      2.00000
     12     -12.6355      2.00000
     13     -11.9901      2.00000
     14     -11.4305      2.00000
     15     -11.2300      2.00000
     16     -10.6235      2.00000
     17     -10.3699      2.00000
     18     -10.2528      2.00000
     19     -10.0299      2.00000
     20      -9.8709      2.00000
     21      -9.3750      2.00000
     22      -9.1448      2.00000
     23      -8.8774      2.00000
     24      -8.8004      2.00000
     25      -8.3703      2.00000
     26      -6.6073      2.00000
     27      -6.3620      2.00000
     28      -5.5811      2.00000
     29      -5.5357      2.00000
     30      -1.2872      0.00000
     31      -1.0545      0.00000
     32      -0.5119      0.00000
     33      -0.2132      0.00000
     34      -0.1455      0.00000
     35      -0.0440      0.00000
     36       0.0083      0.00000
     37       0.0781      0.00000
     38       0.0990      0.00000
     39       0.1197      0.00000
     40       0.1670      0.00000
     41       0.1727      0.00000

 k-point     3 :       0.2500   -0.2500    0.2500
  band No.  band energies     occupation 
      1     -26.4408      2.00000
      2     -25.5258      2.00000
      3     -23.7522      2.00000
      4     -22.5857      2.00000
      5     -19.8689      2.00000
      6     -18.3588      2.00000
      7     -17.3362      2.00000
      8     -15.9135      2.00000
      9     -15.1384      2.00000
[...]
 augmentation part        2.5791164 magnetization 

 Free energy of the ion-electron system (eV)
  ---------------------------------------------------
  alpha Z        PSCENC =         0.51957394
  Ewald energy   TEWEN  =      6042.74750890
  -Hartree energ DENC   =     -8045.37817271
  -exchange      EXHF   =         0.00000000
  -V(xc)+E(xc)   XCENC  =       214.09414473
  PAW double counting   =      4761.09063529    -4772.30148289
  entropy T*S    EENTRO =         0.00000000
  eigenvalues    EBANDS =      -755.96567250
  atomic energy  EATOM  =      2425.98333211
  Solvation  Ediel_sol  =         0.00000000
  ---------------------------------------------------
  free energy    TOTEN  =      -129.21013314 eV

  energy without entropy =     -129.21013314  energy(sigma->0) =     -129.21013314


--------------------------------------------------------------------------------------------------------




 average (electrostatic) potential at core
  the test charge radii are     0.5201  0.6991  0.7089  0.7215
  (the norm of the test charge is              1.0000)
       1 -42.3282       2 -42.6113       3 -42.5851       4 -44.7463       5 -42.3005
       6 -41.8149       7 -41.9876       8 -42.1545       9 -43.1803      10 -41.6526
      11 -41.7868      12 -41.8162      13 -59.1198      14 -61.5875      15 -60.1280
      16 -58.7293      17 -60.8575      18 -59.0215      19 -74.7872      20 -73.8565
      21 -80.0667      22 -79.2147
 
 
 
 E-fermi :  -4.6027     XC(G=0):  -0.1305     alpha+bet : -0.0465


 k-point     1 :       0.2500    0.2500    0.2500
  band No.  band energies     occupation 
      1     -26.2529      2.00000
      2     -25.5385      2.00000
      3     -23.5180      2.00000
      4     -22.6232      2.00000
      5     -19.6837      2.00000
      6     -18.2456      2.00000
      7     -17.3977      2.00000
      8     -15.9191      2.00000
      9     -15.0094      2.00000
     10     -13.9297      2.00000
     11     -12.9220      2.00000
     12     -12.5542      2.00000
     13     -11.9008      2.00000
     14     -11.3650      2.00000
     15     -11.1825      2.00000
     16     -10.5673      2.00000
     17     -10.3393      2.00000
     18     -10.1148      2.00000
     19     -10.0362      2.00000
     20      -9.7985      2.00000
     21      -9.4105      2.00000
     22      -9.1545      2.00000
     23      -8.9833      2.00000
     24      -8.8529      2.00000
     25      -8.4454      2.00000
     26      -6.5683      2.00000
     27      -6.3080      2.00000
     28      -5.7504      2.00000
     29      -5.6110      2.00000
     30      -1.1600      0.00000
     31      -0.9959      0.00000
     32      -0.4819      0.00000
     33      -0.2179      0.00000
     34      -0.1265      0.00000
     35      -0.0932      0.00000
     36       0.0357      0.00000
     37       0.1051      0.00000
     38       0.1316      0.00000
     39       0.1349      0.00000
     40       0.1710      0.00000
     41       0.1968      0.00000

 k-point     2 :      -0.2500    0.2500    0.2500
  band No.  band energies     occupation 
      1     -26.2529      2.00000
      2     -25.5385      2.00000
      3     -23.5180      2.00000
      4     -22.6232      2.00000
      5     -19.6837      2.00000
      6     -18.2456      2.00000
      7     -17.3977      2.00000
      8     -15.9191      2.00000
      9     -15.0094      2.00000
     10     -13.9298      2.00000
     11     -12.9220      2.00000
     12     -12.5542      2.00000
     13     -11.9008      2.00000
     14     -11.3650      2.00000
     15     -11.1825      2.00000
     16     -10.5673      2.00000
     17     -10.3394      2.00000
     18     -10.1148      2.00000
     19     -10.0362      2.00000
     20      -9.7985      2.00000
     21      -9.4105      2.00000
     22      -9.1545      2.00000
     23      -8.9833      2.00000
     24      -8.8529      2.00000
     25      -8.4454      2.00000
     26      -6.5683      2.00000
     27      -6.3080      2.00000
     28      -5.7504      2.00000
     29      -5.6110      2.00000
     30      -1.1600      0.00000
     31      -0.9959      0.00000
     32      -0.4819      0.00000
     33      -0.2179      0.00000
     34      -0.1267      0.00000
     35      -0.0929      0.00000
     36       0.0372      0.00000
     37       0.0986      0.00000
     38       0.1234      0.00000
     39       0.1414      0.00000
     40       0.1857      0.00000
     41       0.1974      0.00000

 k-point     3 :       0.2500   -0.2500    0.2500
  band No.  band energies     occupation 
      1     -26.2529      2.00000
      2     -25.5385      2.00000
      3     -23.5180      2.00000
      4     -22.6232      2.00000
      5     -19.6837      2.00000
      6     -18.2456      2.00000
      7     -17.3977      2.00000
      8     -15.9191      2.00000
      9     -15.0094      2.00000
     10     -13.9298      2.00000
     11     -12.9220      2.00000
     12     -12.5542      2.00000
     13     -11.9008      2.00000
     14     -11.3650      2.00000
     15     -11.1825      2.00000
     16     -10.5673      2.00000
     17     -10.3393      2.00000
     18     -10.1148      2.00000
     19     -10.0362      2.00000
     20      -9.7985      2.00000
     21      -9.4105      2.00000
     22      -9.1545      2.00000
     23      -8.9833      2.00000
     24      -8.8529      2.00000
     25      -8.4454      2.00000
     26      -6.5683      2.00000
     27      -6.3080      2.00000
     28      -5.7504      2.00000
     29      -5.6110      2.00000
     30      -1.1600      0.00000
     31      -0.9959      0.00000
     32      -0.4819      0.00000
     33      -0.2179      0.00000
     34      -0.1265      0.00000
     35      -0.0933      0.00000
     36       0.0355      0.00000
     37       0.1054      0.00000
     38       0.1211      0.00000
     39       0.1423      0.00000
     40       0.1821      0.00000
     41       0.1929      0.00000

 k-point     4 :      -0.2500   -0.2500    0.2500
  band No.  band energies     occupation 
      1     -26.2529      2.00000
      2     -25.5385      2.00000
      3     -23.5180      2.00000
      4     -22.6232      2.00000
      5     -19.6837      2.00000
      6     -18.2456      2.00000
      7     -17.3977      2.00000
      8     -15.9191      2.00000
      9     -15.0094      2.00000
     10     -13.9297      2.00000
     11     -12.9220      2.00000
     12     -12.5542      2.00000
     13     -11.9008      2.00000
     14     -11.3650      2.00000
     15     -11.1825      2.00000
     16     -10.5673      2.00000
     17     -10.3393      2.00000
     18     -10.1148      2.00000
     19     -10.0362      2.00000
     20      -9.7985      2.00000
     21      -9.4105      2.00000
     22      -9.1545      2.00000
     23      -8.9833      2.00000
     24      -8.8529      2.00000
     25      -8.4454      2.00000
     26      -6.5684      2.00000
     27      -6.3080      2.00000
     28      -5.7504      2.00000
     29      -5.6110      2.00000
     30      -1.1600      0.00000
     31      -0.9959      0.00000
     32      -0.4819      0.00000
     33      -0.2179      0.00000
     34      -0.1265      0.00000
     35      -0.0930      0.00000
     36       0.0336      0.00000
     37       0.1095      0.00000
     38       0.1320      0.00000
     39       0.1363      0.00000
     40       0.1649      0.00000
     41       0.1902      0.00000


--------------------------------------------------------------------------------------------------------


 soft charge-density along one line, spin component           1
         0         1         2         3         4         5         6         7         8         9
 total charge-density along one line
 
 pseudopotential strength for first ion, spin component:           1
 -2.352  -4.055   0.002   0.000  -0.001
 -4.055  -6.906   0.005   0.000  -0.003
  0.002   0.005  -0.332   0.000  -0.002
  0.000   0.000   0.000  -0.336   0.000
 -0.001  -0.003  -0.002   0.000  -0.335
 total augmentation occupancy for first ion, spin component:           1
  3.534  -0.637  -0.395   0.007   0.203
 -0.637   0.129   0.073  -0.001  -0.037
 -0.395   0.073   0.046  -0.001  -0.020
  0.007  -0.001  -0.001   0.009   0.000
  0.203  -0.037  -0.020   0.000   0.018


------------------------ aborting loop because EDIFF is reached ----------------------------------------


    CHARGE:  cpu time   15.9476: real time   15.9341
    FORLOC:  cpu time    5.6021: real time    5.5975
    FORNL :  cpu time   58.8371: real time   58.7875
    STRESS:  cpu time  177.7420: real time  177.5927
    FORCOR:  cpu time   22.1026: real time   22.0839
    FORHAR:  cpu time    9.8305: real time    9.8217
    MIXING:  cpu time    0.7179: real time    0.7181
    OFIELD:  cpu time    0.0000: real time    0.0000

  FORCE on cell =-STRESS in cart. coord.  units (eV):
  Direction    XX          YY          ZZ          XY          YZ          ZX
  --------------------------------------------------------------------------------------
  Alpha Z     0.51957     0.51957     0.51957
  Ewald    3446.62285  2556.82389    39.29960    29.16038   235.69207   322.01315
  Hartree  3848.87353  3010.66232  1185.84173    28.95299   187.92201   215.15727
  E(xc)    -229.22254  -229.38360  -232.40512    -0.10803     0.13008     0.53898
  Local   -7887.81456 -6152.00729 -1871.89070   -62.34455  -421.94861  -523.89229
  n-local  -133.30684  -133.97153  -131.76834     0.55851     0.17153    -0.88917
  augment    14.42878    14.20096    14.84119     0.06187    -0.16289    -0.31082
  Kinetic   935.98846   929.84375   991.60811     3.72400    -1.73747   -12.56817
  Fock        0.00000     0.00000     0.00000     0.00000     0.00000     0.00000
  -------------------------------------------------------------------------------------
  Total      -3.91076    -3.31193    -3.95395     0.00517     0.06672     0.04896
  in kB      -0.23206    -0.19653    -0.23463     0.00031     0.00396     0.00291
  external pressure =       -0.22 kB  Pullay stress =        0.00 kB


 VOLUME and BASIS-vectors are now :
 -----------------------------------------------------------------------------
  energy-cutoff  :      400.00
  volume of cell :    27000.00
      direct lattice vectors                 reciprocal lattice vectors
    30.000000000  0.000000000  0.000000000     0.033333333  0.000000000  0.000000000
     0.000000000 30.000000000  0.000000000     0.000000000  0.033333333  0.000000000
     0.000000000  0.000000000 30.000000000     0.000000000  0.000000000  0.033333333

  length of vectors
    30.000000000 30.000000000 30.000000000     0.033333333  0.033333333  0.033333333


 FORCES acting on ions
    electron-ion (+dipol)            ewald-force                    non-local-force                 convergence-correction
 -----------------------------------------------------------------------------------------------
   0.656E+02 -.558E+02 0.693E+01   -.682E+02 0.609E+02 -.703E+01   0.261E+01 -.505E+01 0.895E-01   0.240E-03 0.615E-04 -.277E-04
   0.463E+02 0.283E+02 0.642E+02   -.471E+02 -.308E+02 -.690E+02   0.866E+00 0.246E+01 0.482E+01   0.793E-04 0.203E-03 0.951E-04
   0.630E+02 0.367E+02 -.442E+02   -.653E+02 -.397E+02 0.481E+02   0.236E+01 0.304E+01 -.390E+01   0.116E-03 0.202E-03 -.153E-03
   0.624E+02 0.893E+02 0.282E+02   -.663E+02 -.952E+02 -.303E+02   0.385E+01 0.592E+01 0.212E+01   -.197E-03 0.279E-03 -.420E-04
   0.443E+01 0.556E+02 -.844E+02   -.444E+01 -.580E+02 0.894E+02   0.537E-02 0.241E+01 -.507E+01   -.646E-03 0.132E-03 -.113E-03
   -.651E+02 0.600E+02 0.850E+01   0.704E+02 -.617E+02 -.736E+01   -.536E+01 0.164E+01 -.111E+01   -.547E-03 -.158E-03 -.283E-03
   -.796E+01 0.879E+01 0.867E+02   0.787E+01 -.664E+01 -.917E+02   0.106E+00 -.218E+01 0.505E+01   -.400E-03 0.176E-03 -.764E-04
   0.285E+02 0.841E+02 0.144E+02   -.317E+02 -.885E+02 -.144E+02   0.316E+01 0.441E+01 -.365E-01   -.260E-03 0.810E-04 -.851E-04
   0.409E+02 -.622E+02 0.779E+01   -.475E+02 0.644E+02 -.768E+01   0.661E+01 -.226E+01 -.122E+00   -.384E-03 0.202E-03 -.775E-04
   -.855E+02 -.751E+01 -.115E+02   0.903E+02 0.473E+01 0.129E+02   -.485E+01 0.279E+01 -.139E+01   -.145E-03 0.710E-03 -.116E-03
   -.282E+02 -.507E+02 0.653E+02   0.288E+02 0.528E+02 -.704E+02   -.533E+00 -.208E+01 0.510E+01   -.202E-03 0.414E-03 -.150E-03
   -.137E+02 -.758E+02 -.410E+02   0.130E+02 0.800E+02 0.445E+02   0.714E+00 -.420E+01 -.356E+01   -.184E-03 0.460E-03 0.675E-06
   0.221E+03 0.836E+01 0.331E+02   -.222E+03 -.733E+01 -.332E+02   0.843E+00 -.103E+01 0.114E+00   0.367E-03 0.775E-03 -.125E-03
   0.168E+03 0.134E+02 0.148E+02   -.173E+03 -.136E+02 -.154E+02   0.495E+01 0.162E+00 0.664E+00   -.312E-03 0.168E-02 -.117E-03
   -.169E+01 0.124E+03 -.732E+02   0.668E+01 -.125E+03 0.748E+02   -.499E+01 0.126E+01 -.161E+01   -.272E-02 0.107E-02 -.892E-03
   -.459E+02 0.199E+03 0.117E+03   0.473E+02 -.199E+03 -.118E+03   -.139E+01 0.551E+00 0.490E+00   -.187E-02 0.262E-03 -.550E-03
   -.114E+02 0.142E+02 -.310E+02   0.870E+01 -.159E+02 0.312E+02   0.268E+01 0.169E+01 -.272E+00   -.463E-02 0.423E-02 -.188E-02
   -.153E+03 -.190E+03 0.218E+02   0.157E+03 0.193E+03 -.217E+02   -.456E+01 -.298E+01 -.264E-01   -.801E-03 0.189E-02 -.317E-03
   0.109E+03 0.149E+03 0.355E+02   -.104E+03 -.147E+03 -.374E+02   -.429E+01 -.137E+01 0.197E+01   -.144E-02 0.155E-02 -.745E-03
   -.210E+02 -.189E+03 0.556E+02   0.179E+02 0.192E+03 -.611E+02   0.306E+01 -.285E+01 0.544E+01   -.160E-02 0.714E-03 -.427E-03
   0.813E+02 -.370E+03 -.108E+03   -.685E+02 0.419E+03 0.122E+03   -.128E+02 -.481E+02 -.139E+02   -.141E-02 0.622E-03 -.352E-03
   -.403E+03 0.156E+03 -.147E+03   0.450E+03 -.176E+03 0.162E+03   -.467E+02 0.204E+02 -.144E+02   0.329E-02 0.764E-03 0.267E-03
 -----------------------------------------------------------------------------------------------
   0.538E+02 0.253E+02 0.195E+02   -.114E-12 0.000E+00 -.284E-13   -.537E+02 -.253E+02 -.195E+02   -.137E-01 0.163E-01 -.617E-02
 
 
 POSITION                                       TOTAL-FORCE (eV/Angst)
 -----------------------------------------------------------------------------------
     11.20219     16.16813     14.85843         0.016308      0.007745     -0.002641
     11.55225     14.69029     13.91434         0.020911     -0.002280      0.006052
     11.24838     14.57622     15.66321         0.004591      0.007656      0.004044
     13.41148     13.47979     14.75139         0.003686      0.001944     -0.032019
     15.31845     13.43519     16.38124        -0.004978      0.019135     -0.004131
     16.79122     12.53531     14.55702        -0.019478     -0.026966      0.027389
     15.73577     13.30756     13.33762         0.012929     -0.031819      0.005073
     15.10238     11.98651     14.36280        -0.021597      0.002640      0.010708
     15.31235     16.54954     15.14202         0.000037      0.004142     -0.009518
     18.31502     16.64301     15.34343        -0.006255      0.012451      0.007832
     17.48450     17.58359     14.06553         0.006547      0.033705      0.019518
     17.23336     17.99957     15.78629        -0.026805     -0.010680      0.013630
     11.70784     15.19718     14.87870         0.008401      0.003716      0.003787
     13.18425     15.41855     15.17500         0.006458     -0.005783      0.007597
     15.33874     13.91226     15.38495        -0.001894      0.002287     -0.009434
     15.76771     12.86397     14.34450        -0.010148     -0.012981      0.010209
     16.50259     14.93138     15.47739        -0.042035      0.034542     -0.040467
     17.38820     17.16869     15.08136        -0.008914      0.011269      0.006355
     13.94784     14.29650     15.03899         0.005461     -0.001421     -0.016857
     16.29279     16.21842     15.13344         0.012500     -0.014749     -0.021918
     13.60820     16.54159     15.49668         0.009205     -0.021911      0.027777
     17.60198     14.45920     15.80414         0.035072     -0.012641     -0.012985
 -----------------------------------------------------------------------------------
    total drift:                                0.006424     -0.002044     -0.008087


--------------------------------------------------------------------------------------------------------



  FREE ENERGIE OF THE ION-ELECTRON SYSTEM (eV)
  ---------------------------------------------------
  free  energy   TOTEN  =      -129.21013314 eV

  energy  without entropy=     -129.21013314  energy(sigma->0) =     -129.21013314
 
 d Force = 0.1462624E-02[ 0.380E-03, 0.255E-02]  d Energy = 0.1505911E-02-0.433E-04
 d Force = 0.7695699E+00[ 0.764E+00, 0.775E+00]  d Ewald  = 0.7695595E+00 0.104E-04


--------------------------------------------------------------------------------------------------------


    POTLOK:  cpu time   18.2842: real time   18.2679


--------------------------------------------------------------------------------------------------------


 NEB: the previous image is higher in energy: F
 NEB: the next image is higher in energy    : T
 NEB: only next energy greater

 NEB: Tangent
 ----------------------------------------------
     -0.01699     -0.04287      0.00768
     -0.05110     -0.02966     -0.02010
      0.01706     -0.05428     -0.01008
     -0.05368     -0.07406      0.18985
      0.03578     -0.19468     -0.15726
      0.05541      0.20609     -0.27513
     -0.00825      0.31935     -0.13319
      0.08963      0.14454     -0.34825
      0.00613     -0.02581      0.00101
     -0.01107     -0.04544      0.25021
      0.05734     -0.01825      0.22725
     -0.01827     -0.04050      0.21827
     -0.01715     -0.04297     -0.01925
     -0.00587     -0.03423     -0.09825
     -0.00146     -0.03440     -0.05737
      0.03450      0.17434     -0.21638
     -0.03484     -0.03079      0.11753
      0.00737     -0.03250      0.21538
     -0.03323     -0.05591      0.07217
     -0.00038     -0.02193      0.14357
      0.01418     -0.00566     -0.29474
     -0.06741     -0.05170      0.18992

 NEB: forces: par spring, perp REAL, dneb     0.076841    0.123406    0.000000
 NEB: distance to prev, next image, angle between     1.175258    1.159890  165.495082
 NEB: projections on to tangent (spring, REAL)    -0.076841   -0.057757

 stress matrix after NEB project (eV)
     -3.91076      0.00517      0.04896
      0.00517     -3.31193      0.06672
      0.04896      0.06672     -3.95395
  FORCES: max atom, RMS     0.069063    0.030994
  FORCE total and by dimension    0.145374    0.042710
  Stress total and by dimension    6.473827    3.953952
 OPT: skip step - force has converged


--------------------------------------------------------------------------------------------------------


  
 reached required accuracy - stopping structural energy minimisation
     LOOP+:  cpu time 1817.4507: real time 1816.5786
    4ORBIT:  cpu time    0.0000: real time    0.0000

 total amount of memory used by VASP on root node  4333706. kBytes
========================================================================

   base      :      30000. kBytes
   nonlr-proj:       2401. kBytes
   fftplans  :     924480. kBytes
   grid      :    2089440. kBytes
   one-center:         67. kBytes
   wavefun   :    1287318. kBytes
 
  
  
 General timing and accounting informations for this job:
 ========================================================
  
                  Total CPU time used (sec):   123724.289
                            User time (sec):   122955.305
                          System time (sec):      768.983
                         Elapsed time (sec):   123693.095
  
                   Maximum memory used (kb):     5898872.
                   Average memory used (kb):           0.
  
                          Minor page faults:    183411984
                          Major page faults:            6
                 Voluntary context switches:         7907
