unknown system                          
           1
    30.000000    0.000000    0.000000
     0.000000   30.000000    0.000000
     0.000000    0.000000   30.000000
   H    C    N    O 
  12   6   2   2
Direct configuration=     1
   0.37485187  0.53842546  0.49789381
   0.38506604  0.48954189  0.46445140
   0.38092820  0.48466620  0.52361209
   0.44835227  0.45027450  0.48779650
   0.50733816  0.44704698  0.54639354
   0.56227820  0.42658615  0.48287619
   0.52061780  0.44663221  0.44535095
   0.50832263  0.40020315  0.48032217
   0.50820742  0.55261471  0.51225450
   0.60871506  0.55004039  0.50817446
   0.57554203  0.57551307  0.46594696
   0.57839046  0.60039056  0.52054860
   0.39186855  0.50635491  0.49621979
   0.44081046  0.51486442  0.50172766
   0.51034548  0.46420694  0.51405291
   0.52656124  0.43180189  0.47830836
   0.54837679  0.49769526  0.52047464
   0.57808836  0.56898803  0.50198447
   0.46536828  0.47706603  0.50000260
   0.54099637  0.54134631  0.51486783
   0.45490220  0.55330420  0.50817709
   0.58566076  0.48116395  0.52783966
Direct configuration=     2
   0.37469330  0.53844429  0.49783514
   0.38494786  0.48953605  0.46440704
   0.38078501  0.48465500  0.52360935
   0.44832850  0.45031945  0.48794741
   0.50734940  0.44694174  0.54643148
   0.56231872  0.42639536  0.48286490
   0.52065708  0.44664590  0.44528006
   0.50832837  0.40007791  0.48027880
   0.50829761  0.55252759  0.51213271
   0.60876397  0.55014320  0.50823053
   0.57561482  0.57569585  0.46591623
   0.57844203  0.60049120  0.52056218
   0.39175039  0.50638561  0.49616309
   0.44080916  0.51491752  0.50178228
   0.51040885  0.46414674  0.51406144
   0.52662192  0.43167907  0.47827574
   0.54842452  0.49766159  0.52046774
   0.57819350  0.56908392  0.50200829
   0.46532750  0.47710091  0.50001424
   0.54099995  0.54138882  0.51480333
   0.45478285  0.55337784  0.50832202
   0.58574323  0.48111191  0.52788220
Direct configuration=     3
   0.37446144  0.53847142  0.49774750
   0.38477544  0.48952948  0.46434169
   0.38058131  0.48465996  0.52357929
   0.44826529  0.45035426  0.48815359
   0.50736906  0.44679982  0.54646558
   0.56238527  0.42611449  0.48284724
   0.52072652  0.44664149  0.44521356
   0.50834197  0.39990541  0.48021076
   0.50837337  0.55243280  0.51194881
   0.60885501  0.55028222  0.50831722
   0.57573239  0.57595837  0.46590610
   0.57851816  0.60063987  0.52058859
   0.39160724  0.50641031  0.49611251
   0.44072902  0.51499566  0.50185222
   0.51047192  0.46404886  0.51407247
   0.52667531  0.43152842  0.47820496
   0.54853614  0.49763926  0.52045963
   0.57828358  0.56922883  0.50200610
   0.46535260  0.47716949  0.50006268
   0.54111923  0.54136859  0.51471647
   0.45462402  0.55347645  0.50853611
   0.58580419  0.48107239  0.52793322
Direct configuration=     4
   0.37416903  0.53849309  0.49763177
   0.38455751  0.48952814  0.46426642
   0.38032367  0.48469180  0.52350973
   0.44816704  0.45038704  0.48841485
   0.50740152  0.44663330  0.54647974
   0.56246250  0.42575239  0.48282036
   0.52083162  0.44660255  0.44516958
   0.50836663  0.39970260  0.48011406
   0.50844809  0.55233140  0.51170988
   0.60898567  0.55046403  0.50842647
   0.57589739  0.57629278  0.46592816
   0.57861189  0.60082721  0.52063015
   0.39144464  0.50642656  0.49607438
   0.44057619  0.51509066  0.50194277
   0.51053460  0.46392769  0.51408447
   0.52671108  0.43136623  0.47810466
   0.54869113  0.49761409  0.52044498
   0.57835571  0.56940509  0.50197816
   0.46542727  0.47726866  0.50014279
   0.54132888  0.54130495  0.51459637
   0.45443110  0.55357621  0.50881030
   0.58586518  0.48104191  0.52799643
Direct configuration=     5
   0.37383430  0.53848684  0.49748941
   0.38430697  0.48954037  0.46419960
   0.38001294  0.48474909  0.52340317
   0.44805957  0.45045224  0.48874382
   0.50745265  0.44645060  0.54646225
   0.56251611  0.42532369  0.48277823
   0.52097339  0.44652255  0.44514342
   0.50840302  0.39948974  0.47998176
   0.50858167  0.55220407  0.51142883
   0.60913846  0.55070968  0.50854291
   0.57610914  0.57669371  0.46597360
   0.57871019  0.60103272  0.52068611
   0.39125376  0.50644766  0.49602912
   0.44041244  0.51518324  0.50207193
   0.51061594  0.46381336  0.51409094
   0.52674434  0.43119525  0.47801595
   0.54884397  0.49755134  0.52041454
   0.57845196  0.56958848  0.50195923
   0.46546545  0.47737973  0.50022636
   0.54151182  0.54126905  0.51441872
   0.45420280  0.55365108  0.50913213
   0.58598727  0.48099460  0.52808464
Direct configuration=     6
   0.37347859  0.53844262  0.49732579
   0.38404201  0.48957004  0.46415296
   0.37965156  0.48482064  0.52327534
   0.44795581  0.45055934  0.48913595
   0.50752551  0.44626274  0.54640821
   0.56251848  0.42485308  0.48271919
   0.52114726  0.44640488  0.44511901
   0.50844539  0.39928864  0.47981331
   0.50879012  0.55205299  0.51111921
   0.60930006  0.55102388  0.50865326
   0.57636356  0.57714747  0.46602914
   0.57879740  0.60122787  0.52075431
   0.39103612  0.50648631  0.49595577
   0.44027450  0.51524796  0.50224558
   0.51071890  0.46372727  0.51407926
   0.52679109  0.43101184  0.47797954
   0.54899371  0.49745392  0.52036531
   0.57859606  0.56977160  0.50198390
   0.46542465  0.47748665  0.50029993
   0.54161863  0.54126344  0.51417589
   0.45395005  0.55369609  0.50948905
   0.58616849  0.48093072  0.52819697
Direct configuration=     7
   0.37307072  0.53836423  0.49712346
   0.38374788  0.48961836  0.46411591
   0.37918835  0.48490909  0.52311951
   0.44781581  0.45067953  0.48962021
   0.50763488  0.44606602  0.54629859
   0.56246306  0.42430070  0.48264218
   0.52138019  0.44622571  0.44509005
   0.50848408  0.39909548  0.47958845
   0.50903928  0.55189663  0.51074194
   0.60950501  0.55143547  0.50876756
   0.57670217  0.57769836  0.46611302
   0.57886349  0.60140894  0.52085507
   0.39079053  0.50653989  0.49585111
   0.44011223  0.51528076  0.50247979
   0.51082589  0.46366980  0.51403178
   0.52684319  0.43080437  0.47799888
   0.54920603  0.49736344  0.52028828
   0.57876598  0.56998835  0.50205794
   0.46536077  0.47759897  0.50039700
   0.54176536  0.54118902  0.51383809
   0.45366717  0.55371721  0.50992572
   0.58635556  0.48088090  0.52833270
Direct configuration=     8
   0.37262709  0.53830340  0.49689321
   0.38346675  0.48967790  0.46406280
   0.37863975  0.48502505  0.52294319
   0.44763036  0.45077849  0.49011321
   0.50775961  0.44597538  0.54621898
   0.56236228  0.42359102  0.48268351
   0.52166125  0.44583996  0.44513212
   0.50843594  0.39884552  0.47949802
   0.50926248  0.55178241  0.51030877
   0.60978767  0.55192657  0.50876186
   0.57708570  0.57831131  0.46614154
   0.57890699  0.60160158  0.52089350
   0.39056148  0.50658781  0.49577238
   0.43988410  0.51533353  0.50278036
   0.51090984  0.46364914  0.51399501
   0.52682358  0.43053409  0.47811193
   0.54948830  0.49732968  0.52013398
   0.57889845  0.57024144  0.50201503
   0.46538679  0.47773785  0.50053062
   0.54207759  0.54104122  0.51336513
   0.45338408  0.55373021  0.51052243
   0.58654834  0.48088461  0.52839861
Direct configuration=     9
   0.37217373  0.53828036  0.49663556
   0.38323275  0.48973350  0.46396814
   0.37799302  0.48515839  0.52275499
   0.44741706  0.45085365  0.49062084
   0.50791247  0.44602195  0.54617408
   0.56222664  0.42274834  0.48287821
   0.52199605  0.44524812  0.44522523
   0.50825229  0.39855024  0.47955837
   0.50954016  0.55167519  0.50982971
   0.61015452  0.55250738  0.50863461
   0.57752372  0.57898442  0.46612350
   0.57887501  0.60179580  0.52092711
   0.39033198  0.50661339  0.49574818
   0.43964921  0.51540937  0.50315242
   0.51099944  0.46366555  0.51398246
   0.52672281  0.43021704  0.47826670
   0.54978029  0.49728573  0.51988775
   0.57905255  0.57049856  0.50183037
   0.46541732  0.47785738  0.50067586
   0.54241005  0.54098818  0.51269852
   0.45312549  0.55372008  0.51129332
   0.58680377  0.48090843  0.52840784
Direct configuration=    10
   0.37178324  0.53826810  0.49635761
   0.38310643  0.48978528  0.46385791
   0.37723630  0.48526394  0.52259905
   0.44722963  0.45092032  0.49117135
   0.50811756  0.44619439  0.54618034
   0.56200011  0.42186960  0.48322251
   0.52236706  0.44456028  0.44523663
   0.50789155  0.39828433  0.47973437
   0.50993141  0.55156265  0.50931019
   0.61057568  0.55317232  0.50843195
   0.57803298  0.57973120  0.46602718
   0.57869810  0.60191489  0.52103149
   0.39004383  0.50666080  0.49571393
   0.43953127  0.51542841  0.50360220
   0.51112820  0.46369901  0.51393671
   0.52664709  0.42980580  0.47847036
   0.55006547  0.49726372  0.51955060
   0.57934866  0.57080486  0.50162601
   0.46525577  0.47792329  0.50078974
   0.54261398  0.54099695  0.51183365
   0.45291313  0.55366534  0.51220672
   0.58707535  0.48093619  0.52838014
Direct configuration=    11
   0.37150409  0.53829529  0.49607156
   0.38313103  0.48983082  0.46375801
   0.37640646  0.48534337  0.52245599
   0.44696370  0.45080113  0.49172242
   0.50839517  0.44645435  0.54621138
   0.56174210  0.42106119  0.48367696
   0.52277132  0.44390526  0.44511480
   0.50735650  0.39814616  0.47993300
   0.51016784  0.55156069  0.50872491
   0.61107418  0.55382255  0.50829017
   0.57865286  0.58055663  0.46592709
   0.57834110  0.60191592  0.52132265
   0.38977786  0.50668325  0.49568648
   0.43929793  0.51541414  0.50408044
   0.51120014  0.46370024  0.51376457
   0.52655256  0.42939550  0.47859599
   0.55032166  0.49739226  0.51913094
   0.57959476  0.57118706  0.50146688
   0.46521406  0.47794635  0.50096913
   0.54315739  0.54076945  0.51086461
   0.45279996  0.55349345  0.51317778
   0.58717223  0.48102865  0.52832225
Direct configuration=    12
   0.37152620  0.53830239  0.49607168
   0.38315641  0.48982768  0.46375971
   0.37640719  0.48534598  0.52244735
   0.44697048  0.45079418  0.49173193
   0.50841093  0.44646404  0.54620062
   0.56174505  0.42108166  0.48368577
   0.52277691  0.44392110  0.44510118
   0.50733389  0.39817293  0.47992116
   0.51021464  0.55154879  0.50872150
   0.61107017  0.55382639  0.50831256
   0.57866964  0.58056928  0.46594795
   0.57830914  0.60190453  0.52136925
   0.38978428  0.50667432  0.49570151
   0.43930206  0.51538729  0.50408315
   0.51119760  0.46370680  0.51376080
   0.52654068  0.42942101  0.47856106
   0.55031016  0.49733909  0.51912535
   0.57961368  0.57116547  0.50147103
   0.46518978  0.47791227  0.50096175
   0.54308198  0.54084601  0.51083195
   0.45281483  0.55347496  0.51317001
   0.58716903  0.48101825  0.52833092
Direct configuration=    13
   0.37157178  0.53831632  0.49607179
   0.38320976  0.48982282  0.46376486
   0.37640617  0.48535008  0.52243324
   0.44697951  0.45077239  0.49174434
   0.50844113  0.44648936  0.54618716
   0.56174316  0.42111408  0.48371226
   0.52278730  0.44394288  0.44507437
   0.50728393  0.39822276  0.47991051
   0.51027871  0.55153990  0.50871022
   0.61106622  0.55383156  0.50834885
   0.57870380  0.58059693  0.46597935
   0.57824852  0.60187858  0.52144915
   0.38979785  0.50666086  0.49572708
   0.43930896  0.51534130  0.50409337
   0.51118912  0.46371630  0.51375103
   0.52651933  0.42945924  0.47850777
   0.55028033  0.49727793  0.51910296
   0.57963781  0.57113792  0.50147465
   0.46515400  0.47785717  0.50095167
   0.54298450  0.54094146  0.51077122
   0.45284160  0.55343318  0.51316324
   0.58716098  0.48100235  0.52833945
Direct configuration=    14
   0.37164011  0.53833539  0.49607220
   0.38328996  0.48981788  0.46377531
   0.37640091  0.48535227  0.52242025
   0.44698271  0.45072433  0.49175010
   0.50848249  0.44653204  0.54617880
   0.56172714  0.42115114  0.48376045
   0.52280038  0.44396378  0.44503358
   0.50720689  0.39829020  0.47991111
   0.51031201  0.55155503  0.50868681
   0.61106646  0.55383225  0.50839111
   0.57875406  0.58063953  0.46600944
   0.57816738  0.60183363  0.52154374
   0.38981919  0.50664953  0.49575387
   0.43931648  0.51528833  0.50411438
   0.51117032  0.46372366  0.51373103
   0.52649554  0.42949454  0.47845903
   0.55023111  0.49726648  0.51905499
   0.57964673  0.57112715  0.50147798
   0.46512691  0.47780108  0.50094638
   0.54294369  0.54097367  0.51069627
   0.45287519  0.55336437  0.51316438
   0.58713856  0.48099003  0.52833760
Direct configuration=    15
   0.37172745  0.53835741  0.49607286
   0.38339135  0.48981314  0.46379057
   0.37638930  0.48534937  0.52241298
   0.44697601  0.45064696  0.49174804
   0.50853259  0.44658635  0.54617584
   0.56169355  0.42119131  0.48382398
   0.52281535  0.44398594  0.44497798
   0.50710869  0.39837231  0.47991899
   0.51029786  0.55159882  0.50865041
   0.61107021  0.55382726  0.50843913
   0.57881899  0.58069654  0.46603599
   0.57807174  0.60176892  0.52164573
   0.38984736  0.50664358  0.49577476
   0.43932167  0.51522923  0.50414355
   0.51114196  0.46372860  0.51369758
   0.52647483  0.42952212  0.47842456
   0.55017966  0.49731020  0.51898779
   0.57963655  0.57113958  0.50148905
   0.46511545  0.47775100  0.50094947
   0.54298172  0.54092214  0.51061345
   0.45291520  0.55327747  0.51317480
   0.58708649  0.48098891  0.52832164
Direct configuration=    16
   0.37183261  0.53838320  0.49607343
   0.38351291  0.48980879  0.46380923
   0.37637033  0.48534134  0.52241311
   0.44696342  0.45054757  0.49173749
   0.50859049  0.44665414  0.54618092
   0.56164038  0.42122836  0.48390580
   0.52283246  0.44400236  0.44491391
   0.50698886  0.39846429  0.47993879
   0.51025644  0.55166164  0.50860202
   0.61107299  0.55382228  0.50848646
   0.57889611  0.58076916  0.46605419
   0.57796252  0.60168790  0.52175034
   0.38988301  0.50664322  0.49578948
   0.43932449  0.51515691  0.50417987
   0.51110879  0.46373796  0.51365273
   0.52645461  0.42953997  0.47841047
   0.55014639  0.49737352  0.51890859
   0.57962018  0.57116602  0.50150752
   0.46511242  0.47769963  0.50095733
   0.54305892  0.54083068  0.51050972
   0.45296594  0.55318663  0.51320253
   0.58699952  0.48100227  0.52828544
Direct configuration=    17
   0.37195326  0.53841456  0.49607308
   0.38365155  0.48980368  0.46382727
   0.37634459  0.48533103  0.52241751
   0.44695400  0.45044105  0.49172386
   0.50865630  0.44673496  0.54619013
   0.56157244  0.42125810  0.48400451
   0.52285371  0.44400909  0.44485196
   0.50684890  0.39856258  0.47996747
   0.51023413  0.55172023  0.50854456
   0.61106894  0.55382609  0.50853207
   0.57898406  0.58085864  0.46606901
   0.57783808  0.60159916  0.52186334
   0.38992418  0.50664270  0.49580425
   0.43933123  0.51506984  0.50422219
   0.51107935  0.46376017  0.51360400
   0.52642694  0.42955645  0.47840743
   0.55013009  0.49740094  0.51882494
   0.57961993  0.57118449  0.50152999
   0.46509806  0.47762787  0.50096185
   0.54309284  0.54078747  0.51036545
   0.45303059  0.55310070  0.51324987
   0.58690051  0.48101852  0.52823479
Direct configuration=    18
   0.37209766  0.53845589  0.49607065
   0.38381562  0.48979577  0.46384146
   0.37631133  0.48532215  0.52242094
   0.44695301  0.45032723  0.49171046
   0.50873597  0.44683533  0.54619763
   0.56149052  0.42127800  0.48412652
   0.52288352  0.44400323  0.44479910
   0.50667858  0.39867266  0.48000310
   0.51025453  0.55176482  0.50847355
   0.61105725  0.55384270  0.50858269
   0.57909220  0.58097435  0.46609242
   0.57768764  0.60150360  0.52200163
   0.38997161  0.50663396  0.49582981
   0.43935323  0.51497464  0.50427587
   0.51105694  0.46379712  0.51355703
   0.52637968  0.42958256  0.47840150
   0.55009333  0.49738643  0.51872340
   0.57964332  0.57118571  0.50154820
   0.46505785  0.47751902  0.50095876
   0.54304285  0.54083146  0.51015785
   0.45311094  0.55300376  0.51331938
   0.58682601  0.48101833  0.52817768
Direct configuration=    19
   0.37226852  0.53850843  0.49606412
   0.38400491  0.48978343  0.46384701
   0.37626963  0.48531936  0.52241823
   0.44695742  0.45019743  0.49169735
   0.50883235  0.44695647  0.54619531
   0.56139470  0.42127885  0.48427137
   0.52292602  0.44398200  0.44476699
   0.50647468  0.39879489  0.48004031
   0.51029760  0.55180222  0.50838023
   0.61104457  0.55386753  0.50864816
   0.57923179  0.58112574  0.46614084
   0.57751122  0.60140404  0.52217333
   0.39002397  0.50661113  0.49587484
   0.43939886  0.51488847  0.50434563
   0.51103743  0.46383876  0.51351922
   0.52630475  0.42962253  0.47838372
   0.54999941  0.49738313  0.51858454
   0.57967307  0.57118196  0.50154849
   0.46499509  0.47738147  0.50095340
   0.54294251  0.54091552  0.50988363
   0.45320265  0.55287422  0.51341443
   0.58680232  0.48099154  0.52811861
Direct configuration=    20
   0.37246566  0.53856550  0.49605155
   0.38421454  0.48976862  0.46384658
   0.37621622  0.48532186  0.52241165
   0.44695045  0.45002903  0.49168103
   0.50894669  0.44708933  0.54618147
   0.56127495  0.42125392  0.48442910
   0.52298186  0.44395626  0.44474980
   0.50623968  0.39893136  0.48006787
   0.51028050  0.55186762  0.50825103
   0.61104011  0.55388585  0.50874328
   0.57941548  0.58132439  0.46622253
   0.57731664  0.60129318  0.52237550
   0.39008273  0.50658277  0.49592959
   0.43944523  0.51478875  0.50442716
   0.51100197  0.46386802  0.51348155
   0.52621696  0.42966019  0.47836900
   0.54991529  0.49744877  0.51841084
   0.57966869  0.57121280  0.50154034
   0.46494403  0.47725730  0.50096671
   0.54292656  0.54089857  0.50955734
   0.45330990  0.55271929  0.51354262
   0.58673920  0.48098635  0.52803342
Direct configuration=    21
   0.37268538  0.53861708  0.49603090
   0.38443641  0.48975654  0.46385024
   0.37614579  0.48532502  0.52240833
   0.44693303  0.44983424  0.49166990
   0.50907854  0.44721570  0.54616601
   0.56112055  0.42119548  0.48458560
   0.52304996  0.44394529  0.44473009
   0.50597770  0.39908084  0.48006948
   0.51020190  0.55195503  0.50807780
   0.61103032  0.55390293  0.50887707
   0.57965074  0.58158783  0.46632811
   0.57710644  0.60116582  0.52260877
   0.39015003  0.50656438  0.49596758
   0.43946307  0.51463930  0.50451777
   0.51094759  0.46389493  0.51342376
   0.52613770  0.42967275  0.47838301
   0.54992229  0.49752004  0.51822564
   0.57964400  0.57128031  0.50156465
   0.46491292  0.47714545  0.50100577
   0.54299052  0.54080084  0.50916364
   0.45344200  0.55256662  0.51371121
   0.58656613  0.48104444  0.52790499
Direct configuration=    22
   0.37291674  0.53866314  0.49599847
   0.38465651  0.48975027  0.46386179
   0.37605792  0.48533466  0.52240183
   0.44693461  0.44966939  0.49168751
   0.50922427  0.44731959  0.54615599
   0.56094731  0.42108515  0.48473146
   0.52313328  0.44395931  0.44471042
   0.50569163  0.39922954  0.48002703
   0.51018673  0.55199173  0.50785916
   0.61098642  0.55394782  0.50905400
   0.57994332  0.58193689  0.46645492
   0.57687497  0.60103682  0.52289313
   0.39021992  0.50654878  0.49598105
   0.43948595  0.51450565  0.50464071
   0.51090759  0.46394161  0.51334863
   0.52605568  0.42966626  0.47841121
   0.54984396  0.49754394  0.51800119
   0.57966973  0.57133335  0.50164597
   0.46485497  0.47697734  0.50104876
   0.54293666  0.54082410  0.50865795
   0.45357154  0.55236850  0.51390768
   0.58649282  0.48107895  0.52779211
Direct configuration=    23
   0.37313643  0.53871426  0.49594561
   0.38485336  0.48974350  0.46386278
   0.37595882  0.48537128  0.52236687
   0.44693875  0.44951986  0.49173640
   0.50938468  0.44739693  0.54613497
   0.56078918  0.42088862  0.48485934
   0.52324076  0.44399839  0.44471944
   0.50537868  0.39935406  0.47992062
   0.51021607  0.55197980  0.50757313
   0.61092306  0.55400630  0.50930476
   0.58031846  0.58239143  0.46665570
   0.57662452  0.60091879  0.52325537
   0.39028037  0.50651978  0.49600451
   0.43952593  0.51436551  0.50479423
   0.51089440  0.46396013  0.51330237
   0.52594737  0.42966421  0.47838613
   0.54969874  0.49757834  0.51771671
   0.57971112  0.57139964  0.50173145
   0.46477899  0.47680914  0.50110805
   0.54281808  0.54088594  0.50806036
   0.45368216  0.55213216  0.51414248
   0.58649177  0.48111795  0.52769075
Direct configuration=    24
   0.37332863  0.53876878  0.49587094
   0.38501411  0.48973275  0.46384604
   0.37584227  0.48542568  0.52231467
   0.44690494  0.44933678  0.49179621
   0.50955808  0.44744458  0.54611362
   0.56062012  0.42060779  0.48495699
   0.52336732  0.44407240  0.44472932
   0.50504695  0.39945489  0.47975055
   0.51011975  0.55200691  0.50720827
   0.61087019  0.55403987  0.50963786
   0.58077749  0.58294196  0.46693904
   0.57636632  0.60078792  0.52367217
   0.39033607  0.50650268  0.49603191
   0.43951751  0.51415126  0.50494719
   0.51087283  0.46391753  0.51326943
   0.52586198  0.42962498  0.47833741
   0.54979788  0.49763159  0.51744414
   0.57966691  0.57155273  0.50180640
   0.46477202  0.47670343  0.50121391
   0.54291873  0.54075289  0.50743418
   0.45378859  0.55194453  0.51444260
   0.58624180  0.48131860  0.52751065
Direct configuration=    25
   0.37348745  0.53882516  0.49577451
   0.38512984  0.48972730  0.46383053
   0.37569037  0.48548247  0.52226655
   0.44689769  0.44922144  0.49189352
   0.50974004  0.44745252  0.54613343
   0.56042941  0.42022316  0.48502000
   0.52351496  0.44417671  0.44471771
   0.50471026  0.39953100  0.47951371
   0.51014721  0.55194244  0.50676751
   0.61075872  0.55412358  0.51001503
   0.58130938  0.58360924  0.46724312
   0.57607751  0.60064908  0.52414712
   0.39036664  0.50649893  0.49600893
   0.43956437  0.51412014  0.50516610
   0.51090575  0.46388110  0.51320757
   0.52578726  0.42951886  0.47831237
   0.54947697  0.49779454  0.51705318
   0.57969953  0.57166969  0.50195720
   0.46474636  0.47647090  0.50130549
   0.54284885  0.54079749  0.50671143
   0.45381107  0.55166171  0.51477871
   0.58648940  0.48134859  0.52745160
Direct configuration=    26
   0.37347754  0.53882678  0.49576956
   0.38512258  0.48972768  0.46382796
   0.37568562  0.48548638  0.52226435
   0.44688785  0.44921222  0.49189044
   0.50974729  0.44745462  0.54613519
   0.56042971  0.42020010  0.48501761
   0.52352072  0.44417050  0.44472516
   0.50470588  0.39952390  0.47950706
   0.51014547  0.55194762  0.50674861
   0.61075502  0.55412397  0.51002233
   0.58131982  0.58362456  0.46725510
   0.57606901  0.60064310  0.52415413
   0.39036551  0.50650342  0.49600954
   0.43954318  0.51403890  0.50514980
   0.51090660  0.46387279  0.51321373
   0.52579009  0.42951416  0.47830277
   0.54967212  0.49769165  0.51710338
   0.57970145  0.57167941  0.50195784
   0.46474421  0.47651038  0.50131320
   0.54284249  0.54081687  0.50669717
   0.45382942  0.55172470  0.51481069
   0.58632740  0.48143243  0.52739974
Direct configuration=    27
   0.37345669  0.53883050  0.49575813
   0.38510385  0.48972879  0.46382291
   0.37567284  0.48549535  0.52225901
   0.44687581  0.44920477  0.49188822
   0.50976073  0.44745655  0.54614158
   0.56042911  0.42014339  0.48501049
   0.52353484  0.44415781  0.44473811
   0.50469746  0.39950744  0.47948907
   0.51013836  0.55195490  0.50670623
   0.61074727  0.55412720  0.51004015
   0.58134843  0.58366463  0.46728110
   0.57605096  0.60063217  0.52417333
   0.39035902  0.50650880  0.49600731
   0.43952673  0.51397583  0.50514191
   0.51091600  0.46385340  0.51322341
   0.52578999  0.42949983  0.47828846
   0.54987242  0.49760767  0.51714405
   0.57969868  0.57170159  0.50196023
   0.46474332  0.47655648  0.50132371
   0.54285355  0.54081388  0.50667099
   0.45383233  0.55177898  0.51486317
   0.58618056  0.48152643  0.52734386
Direct configuration=    28
   0.37345543  0.53883071  0.49575713
   0.38510193  0.48972898  0.46382271
   0.37567130  0.48549614  0.52225857
   0.44687740  0.44920787  0.49188908
   0.50976122  0.44745621  0.54614302
   0.56042830  0.42013754  0.48500976
   0.52353622  0.44415690  0.44473799
   0.50469685  0.39950587  0.47948729
   0.51013872  0.55195363  0.50670283
   0.61074662  0.55412839  0.51004153
   0.58135174  0.58366928  0.46728248
   0.57604952  0.60063217  0.52417571
   0.39035773  0.50650849  0.49600627
   0.43953089  0.51399556  0.50514743
   0.51091828  0.46385260  0.51322290
   0.52578900  0.42949732  0.47828999
   0.54982959  0.49763377  0.51712973
   0.57969755  0.57170230  0.50196070
   0.46474457  0.47654956  0.50132284
   0.54285764  0.54080686  0.50666929
   0.45382503  0.55176594  0.51486383
   0.58622339  0.48151031  0.52735434
Direct configuration=    29
   0.37345279  0.53883113  0.49575506
   0.38509815  0.48972936  0.46382228
   0.37566822  0.48549776  0.52225768
   0.44688025  0.44921369  0.49189061
   0.50976239  0.44745571  0.54614595
   0.56042663  0.42012565  0.48500842
   0.52353903  0.44415488  0.44473793
   0.50469547  0.39950267  0.47948387
   0.51013977  0.55195118  0.50669575
   0.61074524  0.55413076  0.51004426
   0.58135830  0.58367863  0.46728529
   0.57604645  0.60063203  0.52418046
   0.39035529  0.50650813  0.49600429
   0.43953798  0.51403038  0.50515746
   0.51092261  0.46385117  0.51322203
   0.52578738  0.42949222  0.47829292
   0.54975559  0.49767886  0.51710452
   0.57969568  0.57170362  0.50196167
   0.46474697  0.47653733  0.50132136
   0.54286452  0.54079499  0.50666528
   0.45381191  0.55174333  0.51486623
   0.58629832  0.48148295  0.52737213
Direct configuration=    30
   0.37344817  0.53883178  0.49575159
   0.38509217  0.48973000  0.46382147
   0.37566327  0.48550051  0.52225626
   0.44688376  0.44922187  0.49189252
   0.50976487  0.44745537  0.54615060
   0.56042376  0.42010615  0.48500651
   0.52354365  0.44415119  0.44473827
   0.50469274  0.39949735  0.47947863
   0.51014246  0.55194746  0.50668363
   0.61074279  0.55413453  0.51004864
   0.58136862  0.58369377  0.46728997
   0.57604095  0.60063145  0.52418807
   0.39035175  0.50650833  0.49600140
   0.43954562  0.51407174  0.50517038
   0.51092890  0.46384924  0.51322106
   0.52578577  0.42948389  0.47829714
   0.54967173  0.49772976  0.51707431
   0.57969388  0.57170559  0.50196337
   0.46475024  0.47652283  0.50131983
   0.54287146  0.54078280  0.50665707
   0.45379528  0.55171757  0.51487323
   0.58638708  0.48145330  0.52739151
Direct configuration=    31
   0.37344777  0.53883182  0.49575132
   0.38509179  0.48973005  0.46382140
   0.37566294  0.48550073  0.52225616
   0.44688372  0.44922210  0.49189251
   0.50976518  0.44745546  0.54615088
   0.56042353  0.42010475  0.48500644
   0.52354398  0.44415084  0.44473841
   0.50469244  0.39949695  0.47947833
   0.51014286  0.55194729  0.50668263
   0.61074257  0.55413476  0.51004895
   0.58136927  0.58369482  0.46729034
   0.57604044  0.60063132  0.52418859
   0.39035161  0.50650854  0.49600129
   0.43954519  0.51407084  0.50517044
   0.51092917  0.46384918  0.51322112
   0.52578590  0.42948330  0.47829728
   0.54967449  0.49772800  0.51707473
   0.57969402  0.57170572  0.50196351
   0.46475031  0.47652318  0.50131994
   0.54287097  0.54078364  0.50665609
   0.45379527  0.55171847  0.51487449
   0.58638551  0.48145471  0.52739063
Direct configuration=    32
   0.37344696  0.53883189  0.49575078
   0.38509104  0.48973015  0.46382125
   0.37566228  0.48550117  0.52225596
   0.44688364  0.44922257  0.49189250
   0.50976580  0.44745564  0.54615144
   0.56042306  0.42010193  0.48500629
   0.52354465  0.44415013  0.44473868
   0.50469182  0.39949615  0.47947774
   0.51014363  0.55194694  0.50668064
   0.61074215  0.55413524  0.51004957
   0.58137057  0.58369692  0.46729108
   0.57603943  0.60063107  0.52418964
   0.39035132  0.50650895  0.49600105
   0.43954437  0.51406911  0.50517059
   0.51092971  0.46384907  0.51322122
   0.52578612  0.42948213  0.47829756
   0.54967987  0.49772458  0.51707552
   0.57969429  0.57170600  0.50196380
   0.46475043  0.47652388  0.50132017
   0.54287003  0.54078526  0.50665413
   0.45379522  0.55172021  0.51487698
   0.58638250  0.48145748  0.52738889
Direct configuration=    33
   0.37344575  0.53883199  0.49574996
   0.38508990  0.48973029  0.46382102
   0.37566128  0.48550183  0.52225565
   0.44688353  0.44922328  0.49189250
   0.50976674  0.44745590  0.54615227
   0.56042237  0.42009769  0.48500604
   0.52354567  0.44414909  0.44473908
   0.50469090  0.39949497  0.47947681
   0.51014475  0.55194644  0.50667763
   0.61074152  0.55413595  0.51005053
   0.58137256  0.58370011  0.46729224
   0.57603791  0.60063067  0.52419125
   0.39035088  0.50650955  0.49600070
   0.43954320  0.51406667  0.50517084
   0.51093053  0.46384886  0.51322137
   0.52578645  0.42948040  0.47829796
   0.54968755  0.49771975  0.51707659
   0.57969468  0.57170644  0.50196424
   0.46475063  0.47652490  0.50132051
   0.54286871  0.54078754  0.50665120
   0.45379508  0.55172268  0.51488068
   0.58637834  0.48146149  0.52738640
Direct configuration=    34
   0.37344412  0.53883212  0.49574885
   0.38508834  0.48973047  0.46382071
   0.37565993  0.48550271  0.52225522
   0.44688338  0.44922420  0.49189259
   0.50976803  0.44745617  0.54615331
   0.56042146  0.42009203  0.48500560
   0.52354706  0.44414782  0.44473956
   0.50468968  0.39949342  0.47947539
   0.51014619  0.55194576  0.50667355
   0.61074067  0.55413687  0.51005196
   0.58137530  0.58370442  0.46729391
   0.57603584  0.60063012  0.52419354
   0.39035027  0.50651031  0.49600021
   0.43954175  0.51406375  0.50517125
   0.51093166  0.46384853  0.51322154
   0.52578685  0.42947813  0.47829841
   0.54969704  0.49771385  0.51707777
   0.57969513  0.57170708  0.50196493
   0.46475090  0.47652617  0.50132101
   0.54286714  0.54079030  0.50664734
   0.45379476  0.55172569  0.51488550
   0.58637342  0.48146656  0.52738332
Direct configuration=    35
   0.37344206  0.53883227  0.49574745
   0.38508635  0.48973068  0.46382031
   0.37565822  0.48550381  0.52225466
   0.44688321  0.44922536  0.49189276
   0.50976967  0.44745644  0.54615457
   0.56042033  0.42008486  0.48500494
   0.52354884  0.44414629  0.44474014
   0.50468814  0.39949152  0.47947346
   0.51014787  0.55194494  0.50666836
   0.61073962  0.55413803  0.51005389