  22  22   0   0
  0.1227273E+04  0.3000000E-08  0.3000000E-08  0.3000000E-08  0.0000000E+00
  1.000000000000000E-004
  CAR 
 unknown system                          
      2.19627064    -28.22152415  301     -4.49485208      1.00000000
    -28.222  0.0000E+00  0.0000E+00
    -28.120  0.0000E+00  0.0000E+00
    -28.019  0.0000E+00  0.0000E+00
    -27.917  0.0000E+00  0.0000E+00
    -27.816  0.0000E+00  0.0000E+00
    -27.715  0.0000E+00  0.0000E+00
    -27.613  0.0000E+00  0.0000E+00
    -27.512  0.0000E+00  0.0000E+00
    -27.410  0.0000E+00  0.0000E+00
    -27.309  0.4854E-15  0.4922E-16
    -27.208  0.1018E-12  0.1037E-13
    -27.106  0.1291E-10  0.1319E-11
    -27.005  0.9888E-09  0.1016E-09
    -26.903  0.4578E-07  0.4743E-08
    -26.802  0.1284E-05  0.1349E-06
    -26.701  0.2183E-04  0.2348E-05
    -26.599  0.2255E-03  0.2522E-04
    -26.498  0.1418E-02  0.1690E-03
    -26.396  0.5437E-02  0.7203E-03
    -26.295  0.1272E-01  0.2010E-02
    -26.194  0.1818E-01  0.3854E-02
    -26.092  0.1588E-01  0.5464E-02
    -25.991  0.8497E-02  0.6326E-02
    -25.889  0.2974E-02  0.6627E-02
    -25.788  0.1897E-02  0.6820E-02
    -25.687  0.5315E-02  0.7358E-02
    -25.585  0.1248E-01  0.8624E-02
    -25.484  0.1811E-01  0.1046E-01
    -25.383  0.1607E-01  0.1209E-01
    -25.281  0.8715E-02  0.1297E-01
    -25.180  0.2886E-02  0.1327E-01
    -25.078  0.5828E-03  0.1333E-01
    -24.977  0.7169E-04  0.1333E-01
    -24.876  0.5363E-05  0.1333E-01
    -24.774  0.2435E-06  0.1333E-01
    -24.673  0.6702E-08  0.1333E-01
    -24.571  0.1116E-09  0.1333E-01
    -24.470  0.1153E-11  0.1333E-01
    -24.369  0.4357E-11  0.1333E-01
    -24.267  0.3749E-09  0.1333E-01
    -24.166  0.1952E-07  0.1333E-01
    -24.064  0.6154E-06  0.1333E-01
    -23.963  0.1176E-04  0.1333E-01
    -23.862  0.1366E-03  0.1335E-01
    -23.760  0.9644E-03  0.1345E-01
    -23.659  0.4150E-02  0.1387E-01
    -23.557  0.1090E-01  0.1497E-01
    -23.456  0.1748E-01  0.1674E-01
    -23.355  0.1713E-01  0.1848E-01
    -23.253  0.1026E-01  0.1952E-01
    -23.152  0.3765E-02  0.1990E-01
    -23.050  0.9677E-03  0.2000E-01
    -22.949  0.1041E-02  0.2011E-01
    -22.848  0.4045E-02  0.2052E-01
    -22.746  0.1072E-01  0.2160E-01
    -22.645  0.1739E-01  0.2337E-01
    -22.544  0.1724E-01  0.2511E-01
    -22.442  0.1044E-01  0.2617E-01
    -22.341  0.3863E-02  0.2657E-01
    -22.239  0.8720E-03  0.2665E-01
    -22.138  0.1199E-03  0.2667E-01
    -22.037  0.1004E-04  0.2667E-01
    -21.935  0.5099E-06  0.2667E-01
    -21.834  0.1571E-07  0.2667E-01
    -21.732  0.2929E-09  0.2667E-01
    -21.631  0.3300E-11  0.2667E-01
    -21.530  0.2245E-13  0.2667E-01
    -21.428  0.8760E-16  0.2667E-01
    -21.327  0.0000E+00  0.2667E-01
    -21.225  0.0000E+00  0.2667E-01
    -21.124  0.0000E+00  0.2667E-01
    -21.023  0.0000E+00  0.2667E-01
    -20.921  0.0000E+00  0.2667E-01
    -20.820  0.0000E+00  0.2667E-01
    -20.718  0.6205E-16  0.2667E-01
    -20.617  0.1537E-13  0.2667E-01
    -20.516  0.2344E-11  0.2667E-01
    -20.414  0.2157E-09  0.2667E-01
    -20.313  0.1200E-07  0.2667E-01
    -20.212  0.4037E-06  0.2667E-01
    -20.110  0.8236E-05  0.2667E-01
    -20.009  0.1020E-03  0.2668E-01
    -19.907  0.7687E-03  0.2676E-01
    -19.806  0.3528E-02  0.2711E-01
    -19.705  0.9881E-02  0.2812E-01
    -19.603  0.1690E-01  0.2983E-01
    -19.502  0.1766E-01  0.3162E-01
    -19.400  0.1128E-01  0.3276E-01
    -19.299  0.4401E-02  0.3321E-01
    -19.198  0.1048E-02  0.3332E-01
    -19.096  0.1520E-03  0.3333E-01
    -18.995  0.1343E-04  0.3333E-01
    -18.893  0.1164E-05  0.3333E-01
    -18.792  0.8966E-05  0.3333E-01
    -18.691  0.1091E-03  0.3335E-01
    -18.589  0.8102E-03  0.3343E-01
    -18.488  0.3665E-02  0.3380E-01
    -18.386  0.1011E-01  0.3482E-01
    -18.285  0.1704E-01  0.3655E-01
    -18.184  0.1755E-01  0.3833E-01
    -18.082  0.1105E-01  0.3945E-01
    -17.981  0.4248E-02  0.3988E-01
    -17.879  0.1004E-02  0.3999E-01
    -17.778  0.2388E-03  0.4001E-01
    -17.677  0.7475E-03  0.4009E-01
    -17.575  0.3417E-02  0.4043E-01
    -17.474  0.9687E-02  0.4141E-01
    -17.373  0.1677E-01  0.4311E-01
    -17.271  0.1775E-01  0.4491E-01
    -17.170  0.1148E-01  0.4608E-01
    -17.068  0.4534E-02  0.4654E-01
    -16.967  0.1093E-02  0.4665E-01
    -16.866  0.1606E-03  0.4667E-01
    -16.764  0.1479E-04  0.4667E-01
    -16.663  0.9693E-05  0.4667E-01
    -16.561  0.1089E-03  0.4668E-01
    -16.460  0.8086E-03  0.4676E-01
    -16.359  0.3659E-02  0.4713E-01
    -16.257  0.1010E-01  0.4816E-01
    -16.156  0.1704E-01  0.4988E-01
    -16.054  0.1756E-01  0.5166E-01
    -15.953  0.1106E-01  0.5279E-01
    -15.852  0.4253E-02  0.5322E-01
    -15.750  0.9983E-03  0.5332E-01
    -15.649  0.1428E-03  0.5333E-01
    -15.547  0.1243E-04  0.5333E-01
    -15.446  0.6744E-06  0.5333E-01
    -15.345  0.5850E-06  0.5333E-01
    -15.243  0.1093E-04  0.5333E-01
    -15.142  0.1286E-03  0.5335E-01
    -15.040  0.9204E-03  0.5344E-01
    -14.939  0.4015E-02  0.5385E-01
    -14.838  0.1068E-01  0.5493E-01
    -14.736  0.1737E-01  0.5669E-01
    -14.635  0.1725E-01  0.5844E-01
    -14.534  0.1048E-01  0.5950E-01
    -14.432  0.3908E-02  0.5990E-01
    -14.331  0.1126E-02  0.6001E-01
    -14.229  0.1643E-02  0.6018E-01
    -14.128  0.5717E-02  0.6076E-01
    -14.027  0.1306E-01  0.6208E-01
    -13.925  0.1826E-01  0.6394E-01
    -13.824  0.1561E-01  0.6552E-01
    -13.722  0.8213E-02  0.6635E-01
    -13.621  0.3130E-02  0.6667E-01
    -13.520  0.3203E-02  0.6699E-01
    -13.418  0.8408E-02  0.6785E-01
    -13.317  0.1578E-01  0.6945E-01
    -13.215  0.1822E-01  0.7129E-01
    -13.114  0.1286E-01  0.7260E-01
    -13.013  0.5569E-02  0.7316E-01
    -12.911  0.1726E-02  0.7334E-01
    -12.810  0.1849E-02  0.7352E-01
    -12.708  0.5966E-02  0.7413E-01
    -12.607  0.1335E-01  0.7548E-01
    -12.506  0.1832E-01  0.7734E-01
    -12.404  0.1536E-01  0.7890E-01
    -12.303  0.7873E-02  0.7970E-01
    -12.201  0.2463E-02  0.7995E-01
    -12.100  0.4738E-03  0.7999E-01
    -11.999  0.1077E-03  0.8001E-01
    -11.897  0.4658E-03  0.8005E-01
    -11.796  0.2472E-02  0.8030E-01
    -11.695  0.8254E-02  0.8114E-01
    -11.593  0.1777E-01  0.8294E-01
    -11.492  0.2628E-01  0.8561E-01
    -11.390  0.2889E-01  0.8854E-01
    -11.289  0.2450E-01  0.9102E-01
    -11.188  0.1613E-01  0.9266E-01
    -11.086  0.1150E-01  0.9382E-01
    -10.985  0.1677E-01  0.9552E-01
    -10.883  0.2815E-01  0.9838E-01
    -10.782  0.3398E-01  0.1018E+00
    -10.681  0.2816E-01  0.1047E+00
    -10.579  0.1849E-01  0.1066E+00
    -10.478  0.1589E-01  0.1082E+00
    -10.376  0.2010E-01  0.1102E+00
    -10.275  0.2460E-01  0.1127E+00
    -10.174  0.3087E-01  0.1158E+00
    -10.072  0.4220E-01  0.1201E+00
     -9.971  0.4968E-01  0.1251E+00
     -9.869  0.4267E-01  0.1295E+00
     -9.768  0.2538E-01  0.1320E+00
     -9.667  0.1119E-01  0.1332E+00
     -9.565  0.7667E-02  0.1340E+00
     -9.464  0.1368E-01  0.1353E+00
     -9.362  0.2302E-01  0.1377E+00
     -9.261  0.2939E-01  0.1407E+00
     -9.160  0.3161E-01  0.1439E+00
     -9.058  0.3155E-01  0.1471E+00
     -8.957  0.3046E-01  0.1501E+00
     -8.856  0.2875E-01  0.1531E+00
     -8.754  0.2680E-01  0.1558E+00
     -8.653  0.2369E-01  0.1582E+00
     -8.551  0.2019E-01  0.1602E+00
     -8.450  0.1980E-01  0.1622E+00
     -8.349  0.1979E-01  0.1642E+00
     -8.247  0.1461E-01  0.1657E+00
     -8.146  0.6895E-02  0.1664E+00
     -8.044  0.2006E-02  0.1666E+00
     -7.943  0.3565E-03  0.1667E+00
     -7.842  0.3859E-04  0.1667E+00
     -7.740  0.2539E-05  0.1667E+00
     -7.639  0.1015E-06  0.1667E+00
     -7.537  0.7485E-08  0.1667E+00
     -7.436  0.1899E-06  0.1667E+00
     -7.335  0.4338E-05  0.1667E+00
     -7.233  0.6018E-04  0.1667E+00
     -7.132  0.5075E-03  0.1667E+00
     -7.030  0.2607E-02  0.1670E+00
     -6.929  0.8167E-02  0.1678E+00
     -6.828  0.1562E-01  0.1694E+00
     -6.726  0.1828E-01  0.1713E+00
     -6.625  0.1327E-01  0.1726E+00
     -6.523  0.7108E-02  0.1733E+00
     -6.422  0.6948E-02  0.1740E+00
     -6.321  0.1298E-01  0.1753E+00
     -6.219  0.1839E-01  0.1772E+00
     -6.118  0.1711E-01  0.1789E+00
     -6.017  0.1339E-01  0.1803E+00
     -5.915  0.1479E-01  0.1818E+00
     -5.814  0.1870E-01  0.1837E+00
     -5.712  0.1772E-01  0.1855E+00
     -5.611  0.1413E-01  0.1869E+00
     -5.510  0.1520E-01  0.1885E+00
     -5.408  0.1863E-01  0.1904E+00
     -5.307  0.1645E-01  0.1920E+00
     -5.205  0.9110E-02  0.1929E+00
     -5.104  0.3092E-02  0.1933E+00
     -5.003  0.6406E-03  0.1933E+00
     -4.901  0.8085E-04  0.1933E+00
     -4.800  0.6205E-05  0.1933E+00
     -4.698  0.2891E-06  0.1933E+00
     -4.597  0.8165E-08  0.1933E+00
     -4.496  0.1395E-09  0.1933E+00
     -4.394  0.1441E-11  0.1933E+00
     -4.293  0.8981E-14  0.1933E+00
     -4.191  0.2920E-16  0.1933E+00
     -4.090  0.0000E+00  0.1933E+00
     -3.989  0.0000E+00  0.1933E+00
     -3.887  0.0000E+00  0.1933E+00
     -3.786  0.0000E+00  0.1933E+00
     -3.685  0.0000E+00  0.1933E+00
     -3.583  0.0000E+00  0.1933E+00
     -3.482  0.0000E+00  0.1933E+00
     -3.380  0.0000E+00  0.1933E+00
     -3.279  0.0000E+00  0.1933E+00
     -3.178  0.0000E+00  0.1933E+00
     -3.076  0.0000E+00  0.1933E+00
     -2.975  0.0000E+00  0.1933E+00
     -2.873  0.0000E+00  0.1933E+00
     -2.772  0.0000E+00  0.1933E+00
     -2.671  0.0000E+00  0.1933E+00
     -2.569  0.0000E+00  0.1933E+00
     -2.468  0.0000E+00  0.1933E+00
     -2.366  0.0000E+00  0.1933E+00
     -2.265  0.4416E-15  0.1933E+00
     -2.164  0.9321E-13  0.1933E+00
     -2.062  0.1193E-10  0.1933E+00
     -1.961  0.9218E-09  0.1933E+00
     -1.859  0.4309E-07  0.1933E+00
     -1.758  0.1221E-05  0.1933E+00
     -1.657  0.2103E-04  0.1933E+00
     -1.555  0.2213E-03  0.1934E+00
     -1.454  0.1433E-02  0.1935E+00
     -1.352  0.5793E-02  0.1941E+00
     -1.251  0.1501E-01  0.1956E+00
     -1.150  0.2593E-01  0.1982E+00
     -1.048  0.3127E-01  0.2014E+00
     -0.947  0.2695E-01  0.2041E+00
     -0.846  0.1640E-01  0.2058E+00
     -0.744  0.7530E-02  0.2066E+00
     -0.643  0.6096E-02  0.2072E+00
     -0.541  0.1348E-01  0.2086E+00
     -0.440  0.2723E-01  0.2113E+00
     -0.339  0.4156E-01  0.2155E+00
     -0.237  0.5210E-01  0.2208E+00
     -0.136  0.6108E-01  0.2270E+00
     -0.034  0.7717E-01  0.2348E+00
      0.067  0.1019E+00  0.2452E+00
      0.168  0.1143E+00  0.2568E+00
      0.270  0.9224E-01  0.2661E+00
      0.371  0.4968E-01  0.2711E+00
      0.473  0.1726E-01  0.2729E+00
      0.574  0.3805E-02  0.2733E+00
      0.675  0.5264E-03  0.2733E+00
      0.777  0.4535E-04  0.2733E+00
      0.878  0.2419E-05  0.2733E+00
      0.980  0.7940E-07  0.2733E+00
      1.081  0.1597E-08  0.2733E+00
      1.182  0.1962E-10  0.2733E+00
      1.284  0.1466E-12  0.2733E+00
      1.385  0.6661E-15  0.2733E+00
      1.487  0.0000E+00  0.2733E+00
      1.588  0.0000E+00  0.2733E+00
      1.689  0.0000E+00  0.2733E+00
      1.791  0.0000E+00  0.2733E+00
      1.892  0.0000E+00  0.2733E+00
      1.993  0.0000E+00  0.2733E+00
      2.095  0.0000E+00  0.2733E+00
      2.196  0.0000E+00  0.2733E+00
