   22   22  300    1
  0.1227273E+04  0.3000000E-08  0.3000000E-08  0.3000000E-08  0.0000000E+00
  1.000000000000000E-004
  CAR 
 unknown system                          
     58      4     41
 
  0.2500000E+00  0.2500000E+00  0.2500000E+00  0.2500000E+00
    1      -26.221521   1.000000
    2      -25.508529   1.000000
    3      -23.460203   1.000000
    4      -22.646732   1.000000
    5      -19.594054   1.000000
    6      -18.278973   1.000000
    7      -17.360866   1.000000
    8      -16.149609   1.000000
    9      -14.737665   1.000000
   10      -13.957523   1.000000
   11      -13.287186   1.000000
   12      -12.541900   1.000000
   13      -11.555520   1.000000
   14      -11.355106   1.000000
   15      -10.894961   1.000000
   16      -10.776080   1.000000
   17      -10.377740   1.000000
   18      -10.096396   1.000000
   19      -10.006924   1.000000
   20       -9.920080   1.000000
   21       -9.381544   1.000000
   22       -9.177112   1.000000
   23       -8.967574   1.000000
   24       -8.728433   1.000000
   25       -8.399257   1.000000
   26       -6.795558   1.000000
   27       -6.247067   1.000000
   28       -5.832264   1.000000
   29       -5.427566   1.000000
   30       -1.175793   0.000000
   31       -1.010781   0.000000
   32       -0.439455   0.000000
   33       -0.294128   0.000000
   34       -0.197658   0.000000
   35       -0.063268   0.000000
   36        0.047007   0.000000
   37        0.102005   0.000000
   38        0.126172   0.000000
   39        0.140133   0.000000
   40        0.174589   0.000000
   41        0.196271   0.000000
 
 -0.2500000E+00  0.2500000E+00  0.2500000E+00  0.2500000E+00
    1      -26.221524   1.000000
    2      -25.508531   1.000000
    3      -23.460195   1.000000
    4      -22.646735   1.000000
    5      -19.594054   1.000000
    6      -18.278973   1.000000
    7      -17.360866   1.000000
    8      -16.149612   1.000000
    9      -14.737664   1.000000
   10      -13.957527   1.000000
   11      -13.287187   1.000000
   12      -12.541893   1.000000
   13      -11.555520   1.000000
   14      -11.355108   1.000000
   15      -10.894967   1.000000
   16      -10.776077   1.000000
   17      -10.377737   1.000000
   18      -10.096400   1.000000
   19      -10.006926   1.000000
   20       -9.920076   1.000000
   21       -9.381541   1.000000
   22       -9.177120   1.000000
   23       -8.967594   1.000000
   24       -8.728430   1.000000
   25       -8.399262   1.000000
   26       -6.795536   1.000000
   27       -6.247057   1.000000
   28       -5.832271   1.000000
   29       -5.427560   1.000000
   30       -1.175789   0.000000
   31       -1.010781   0.000000
   32       -0.439459   0.000000
   33       -0.294128   0.000000
   34       -0.197648   0.000000
   35       -0.063121   0.000000
   36        0.045503   0.000000
   37        0.101087   0.000000
   38        0.130068   0.000000
   39        0.139374   0.000000
   40        0.182888   0.000000
   41        0.195220   0.000000
 
  0.2500000E+00 -0.2500000E+00  0.2500000E+00  0.2500000E+00
    1      -26.221520   1.000000
    2      -25.508532   1.000000
    3      -23.460195   1.000000
    4      -22.646734   1.000000
    5      -19.594055   1.000000
    6      -18.278974   1.000000
    7      -17.360864   1.000000
    8      -16.149612   1.000000
    9      -14.737663   1.000000
   10      -13.957534   1.000000
   11      -13.287188   1.000000
   12      -12.541889   1.000000
   13      -11.555514   1.000000
   14      -11.355110   1.000000
   15      -10.894967   1.000000
   16      -10.776077   1.000000
   17      -10.377743   1.000000
   18      -10.096399   1.000000
   19      -10.006930   1.000000
   20       -9.920084   1.000000
   21       -9.381543   1.000000
   22       -9.177124   1.000000
   23       -8.967570   1.000000
   24       -8.728434   1.000000
   25       -8.399262   1.000000
   26       -6.795558   1.000000
   27       -6.247055   1.000000
   28       -5.832256   1.000000
   29       -5.427547   1.000000
   30       -1.175771   0.000000
   31       -1.010782   0.000000
   32       -0.439447   0.000000
   33       -0.294139   0.000000
   34       -0.197644   0.000000
   35       -0.062325   0.000000
   36        0.038653   0.000000
   37        0.112649   0.000000
   38        0.124579   0.000000
   39        0.143116   0.000000
   40        0.187865   0.000000
   41        0.194024   0.000000
 
 -0.2500000E+00 -0.2500000E+00  0.2500000E+00  0.2500000E+00
    1      -26.221519   1.000000
    2      -25.508531   1.000000
    3      -23.460194   1.000000
    4      -22.646735   1.000000
    5      -19.594055   1.000000
    6      -18.278973   1.000000
    7      -17.360864   1.000000
    8      -16.149611   1.000000
    9      -14.737666   1.000000
   10      -13.957526   1.000000
   11      -13.287187   1.000000
   12      -12.541894   1.000000
   13      -11.555516   1.000000
   14      -11.355101   1.000000
   15      -10.894968   1.000000
   16      -10.776076   1.000000
   17      -10.377732   1.000000
   18      -10.096401   1.000000
   19      -10.006929   1.000000
   20       -9.920082   1.000000
   21       -9.381537   1.000000
   22       -9.177128   1.000000
   23       -8.967582   1.000000
   24       -8.728424   1.000000
   25       -8.399252   1.000000
   26       -6.795553   1.000000
   27       -6.247057   1.000000
   28       -5.832259   1.000000
   29       -5.427559   1.000000
   30       -1.175777   0.000000
   31       -1.010782   0.000000
   32       -0.439457   0.000000
   33       -0.294138   0.000000
   34       -0.197658   0.000000
   35       -0.062372   0.000000
   36        0.038912   0.000000
   37        0.122567   0.000000
   38        0.128310   0.000000
   39        0.130081   0.000000
   40        0.175834   0.000000
   41        0.189295   0.000000
