 vasp.5.4.1 24Jun15 (build Jan 13 2020 12:58:22) complex                        
  
 executed on           IFC91_ompi date 2020.02.03  09:56:59
 running on   15 total cores
 each image running on    1 cores
 distrk:  each k-point on    1 cores,    1 groups
 distr:  one band on NCORES_PER_BAND=   1 cores,    1 groups


--------------------------------------------------------------------------------------------------------


 INCAR:
 POTCAR:    PAW_PBE H 15Jun2001                   
 POTCAR:    PAW_PBE C 08Apr2002                   
 POTCAR:    PAW_PBE N 08Apr2002                   
 POTCAR:    PAW_PBE O 08Apr2002                   
 POTCAR:    PAW_PBE H 15Jun2001                   
   VRHFIN =H: ultrasoft test                                                    
   LEXCH  = PE                                                                  
   EATOM  =    12.4884 eV,    0.9179 Ry                                         
                                                                                
   TITEL  = PAW_PBE H 15Jun2001                                                 
   LULTRA =        F    use ultrasoft PP ?                                      
   IUNSCR =        0    unscreen: 0-lin 1-nonlin 2-no                           
   RPACOR =    0.000    partial core radius                                     
   POMASS =    1.000; ZVAL   =    1.000    mass and valenz                      
   RCORE  =    1.100    outmost cutoff radius                                   
   RWIGS  =    0.700; RWIGS  =    0.370    wigner-seitz radius (au A)           
   ENMAX  =  250.000; ENMIN  =  200.000 eV                                      
   RCLOC  =    0.701    cutoff for local pot                                    
   LCOR   =        T    correct aug charges                                     
   LPAW   =        T    paw PP                                                  
   EAUG   =  400.000                                                            
   RMAX   =    1.123    core radius for proj-oper                               
   RAUG   =    1.200    factor for augmentation sphere                          
   RDEP   =    1.112    radius for radial grids                                 
   RDEPT  =    0.926    core radius for aug-charge                              
                                                                                
   Atomic configuration                                                         
    2 entries                                                                   
     n  l   j            E        occ.                                          
     1  0  0.50        -6.4927   1.0000                                         
     2  1  0.50        -3.4015   0.0000                                         
   Description                                                                  
     l       E           TYP  RCUT    TYP  RCUT                                 
     0     -6.4927494     23  1.100                                             
     0      6.8029130     23  1.100                                             
     1     -4.0817478     23  1.100                                             
  local pseudopotential read in
  atomic valenz-charges read in
  non local Contribution for L=           0  read in
    real space projection operators read in
  non local Contribution for L=           0  read in
    real space projection operators read in
  non local Contribution for L=           1  read in
    real space projection operators read in
    PAW grid and wavefunctions read in
 
   number of l-projection  operators is LMAX  =           3
   number of lm-projection operators is LMMAX =           5
 
 POTCAR:    PAW_PBE C 08Apr2002                   
   VRHFIN =C: s2p2                                                              
   LEXCH  = PE                                                                  
   EATOM  =   147.1560 eV,   10.8157 Ry                                         
                                                                                
   TITEL  = PAW_PBE C 08Apr2002                                                 
   LULTRA =        F    use ultrasoft PP ?                                      
   IUNSCR =        1    unscreen: 0-lin 1-nonlin 2-no                           
   RPACOR =    1.200    partial core radius                                     
   POMASS =   12.011; ZVAL   =    4.000    mass and valenz                      
   RCORE  =    1.500    outmost cutoff radius                                   
   RWIGS  =    1.630; RWIGS  =    0.863    wigner-seitz radius (au A)           
   ENMAX  =  400.000; ENMIN  =  300.000 eV                                      
   ICORE  =        2    local potential                                         
   LCOR   =        T    correct aug charges                                     
   LPAW   =        T    paw PP                                                  
   EAUG   =  644.873                                                            
   DEXC   =    0.000                                                            
   RMAX   =    1.529    core radius for proj-oper                               
   RAUG   =    1.300    factor for augmentation sphere                          
   RDEP   =    1.501    radius for radial grids                                 
   RDEPT  =    1.300    core radius for aug-charge                              
                                                                                
   Atomic configuration                                                         
    4 entries                                                                   
     n  l   j            E        occ.                                          
     1  0  0.50      -273.3789   2.0000                                         
     2  0  0.50       -13.7508   2.0000                                         
     2  1  0.50        -5.2854   2.0000                                         
     3  2  1.50        -5.4423   0.0000                                         
   Description                                                                  
     l       E           TYP  RCUT    TYP  RCUT                                 
     0    -13.7508458     23  1.200                                             
     0     -8.2022199     23  1.200                                             
     1     -5.2854383     23  1.500                                             
     1     34.0145650     23  1.500                                             
     2     -5.4423304      7  1.500                                             
  local pseudopotential read in
  partial core-charges read in
  partial kinetic energy density read in
  atomic valenz-charges read in
  non local Contribution for L=           0  read in
    real space projection operators read in
  non local Contribution for L=           0  read in
    real space projection operators read in
  non local Contribution for L=           1  read in
    real space projection operators read in
  non local Contribution for L=           1  read in
    real space projection operators read in
    PAW grid and wavefunctions read in
 
   number of l-projection  operators is LMAX  =           4
   number of lm-projection operators is LMMAX =           8
 
 POTCAR:    PAW_PBE N 08Apr2002                   
   VRHFIN =N: s2p3                                                              
   LEXCH  = PE                                                                  
   EATOM  =   264.5486 eV,   19.4438 Ry                                         
                                                                                
   TITEL  = PAW_PBE N 08Apr2002                                                 
   LULTRA =        F    use ultrasoft PP ?                                      
   IUNSCR =        1    unscreen: 0-lin 1-nonlin 2-no                           
   RPACOR =    1.200    partial core radius                                     
   POMASS =   14.001; ZVAL   =    5.000    mass and valenz                      
   RCORE  =    1.500    outmost cutoff radius                                   
   RWIGS  =    1.400; RWIGS  =    0.741    wigner-seitz radius (au A)           
   ENMAX  =  400.000; ENMIN  =  300.000 eV                                      
   ICORE  =        2    local potential                                         
   LCOR   =        T    correct aug charges                                     
   LPAW   =        T    paw PP                                                  
   EAUG   =  627.112                                                            
   DEXC   =    0.000                                                            
   RMAX   =    1.529    core radius for proj-oper                               
   RAUG   =    1.300    factor for augmentation sphere                          
   RDEP   =    1.514    radius for radial grids                                 
   RDEPT  =    1.338    core radius for aug-charge                              
                                                                                
   Atomic configuration                                                         
    4 entries                                                                   
     n  l   j            E        occ.                                          
     1  0  0.50      -384.7179   2.0000                                         
     2  0  0.50       -18.5828   2.0000                                         
     2  1  0.50        -7.0898   3.0000                                         
     3  2  1.50        -6.8029   0.0000                                         
   Description                                                                  
     l       E           TYP  RCUT    TYP  RCUT                                 
     0    -18.5828119     23  1.200                                             
     0    -13.5018863     23  1.200                                             
     1     -7.0897853     23  1.500                                             
     1      9.5240782     23  1.500                                             
     2     -6.8029130      7  1.500                                             
  local pseudopotential read in
  partial core-charges read in
  partial kinetic energy density read in
  atomic valenz-charges read in
  non local Contribution for L=           0  read in
    real space projection operators read in
  non local Contribution for L=           0  read in
    real space projection operators read in
  non local Contribution for L=           1  read in
    real space projection operators read in
  non local Contribution for L=           1  read in
    real space projection operators read in
    PAW grid and wavefunctions read in
 
   number of l-projection  operators is LMAX  =           4
   number of lm-projection operators is LMMAX =           8
 
 POTCAR:    PAW_PBE O 08Apr2002                   
   VRHFIN =O: s2p4                                                              
   LEXCH  = PE                                                                  
   EATOM  =   432.3788 eV,   31.7789 Ry                                         
                                                                                
   TITEL  = PAW_PBE O 08Apr2002                                                 
   LULTRA =        F    use ultrasoft PP ?                                      
   IUNSCR =        1    unscreen: 0-lin 1-nonlin 2-no                           
   RPACOR =    1.200    partial core radius                                     
   POMASS =   16.000; ZVAL   =    6.000    mass and valenz                      
   RCORE  =    1.520    outmost cutoff radius                                   
   RWIGS  =    1.550; RWIGS  =    0.820    wigner-seitz radius (au A)           
   ENMAX  =  400.000; ENMIN  =  300.000 eV                                      
   ICORE  =        2    local potential                                         
   LCOR   =        T    correct aug charges                                     
   LPAW   =        T    paw PP                                                  
   EAUG   =  605.392                                                            
   DEXC   =    0.000                                                            
   RMAX   =    1.553    core radius for proj-oper                               
   RAUG   =    1.300    factor for augmentation sphere                          
   RDEP   =    1.550    radius for radial grids                                 
   RDEPT  =    1.329    core radius for aug-charge                              
                                                                                
   Atomic configuration                                                         
    4 entries                                                                   
     n  l   j            E        occ.                                          
     1  0  0.50      -514.6923   2.0000                                         
     2  0  0.50       -23.9615   2.0000                                         
     2  1  0.50        -9.0305   4.0000                                         
     3  2  1.50        -9.5241   0.0000                                         
   Description                                                                  
     l       E           TYP  RCUT    TYP  RCUT                                 
     0    -23.9615318     23  1.200                                             
     0     -9.5240782     23  1.200                                             
     1     -9.0304911     23  1.520                                             
     1      8.1634956     23  1.520                                             
     2     -9.5240782      7  1.500                                             
  local pseudopotential read in
  partial core-charges read in
  partial kinetic energy density read in
  kinetic energy density of atom read in
  atomic valenz-charges read in
  non local Contribution for L=           0  read in
    real space projection operators read in
  non local Contribution for L=           0  read in
    real space projection operators read in
  non local Contribution for L=           1  read in
    real space projection operators read in
  non local Contribution for L=           1  read in
    real space projection operators read in
    PAW grid and wavefunctions read in
 
   number of l-projection  operators is LMAX  =           4
   number of lm-projection operators is LMMAX =           8
 
 Optimization of the real space projectors (new method)

 maximal supplied QI-value         = 34.20
 optimisation between [QCUT,QGAM] = [  9.92, 20.18] = [ 27.55,114.04] Ry 
 Optimized for a Real-space Cutoff    1.26 Angstroem

   l    n(q)    QCUT    max X(q) W(low)/X(q) W(high)/X(q)  e(spline) 
   0      8     9.919    19.460    0.50E-03    0.23E-03    0.29E-06
   0      8     9.919    12.209    0.48E-03    0.23E-03    0.28E-06
   1      7     9.919     4.655    0.17E-03    0.75E-03    0.30E-06
 Optimization of the real space projectors (new method)

 maximal supplied QI-value         = 25.13
 optimisation between [QCUT,QGAM] = [ 10.05, 20.36] = [ 28.30,116.06] Ry 
 Optimized for a Real-space Cutoff    1.30 Angstroem

   l    n(q)    QCUT    max X(q) W(low)/X(q) W(high)/X(q)  e(spline) 
   0      8    10.053   115.676    0.49E-03    0.72E-03    0.18E-06
   0      8    10.053    87.132    0.49E-03    0.71E-03    0.18E-06
   1      7    10.053     4.429    0.32E-03    0.31E-03    0.18E-06
   1      7    10.053     2.733    0.23E-03    0.19E-03    0.20E-06
 Optimization of the real space projectors (new method)

 maximal supplied QI-value         = 25.13
 optimisation between [QCUT,QGAM] = [ 10.05, 20.36] = [ 28.30,116.06] Ry 
 Optimized for a Real-space Cutoff    1.65 Angstroem

   l    n(q)    QCUT    max X(q) W(low)/X(q) W(high)/X(q)  e(spline) 
   0     10    10.053    79.467    0.76E-04    0.72E-04    0.56E-06
   0     10    10.053    66.151    0.76E-04    0.72E-04    0.55E-06
   1     10    10.053     8.350    0.25E-03    0.92E-03    0.41E-05
   1     10    10.053     5.531    0.27E-03    0.10E-02    0.45E-05
 Optimization of the real space projectors (new method)

 maximal supplied QI-value         = 24.76
 optimisation between [QCUT,QGAM] = [ 10.15, 20.30] = [ 28.85,115.39] Ry 
 Optimized for a Real-space Cutoff    1.38 Angstroem

   l    n(q)    QCUT    max X(q) W(low)/X(q) W(high)/X(q)  e(spline) 
   0      8    10.150    20.381    0.22E-03    0.32E-03    0.29E-06
   0      8    10.150    15.268    0.23E-03    0.35E-03    0.30E-06
   1      8    10.150     5.964    0.46E-03    0.53E-03    0.21E-06
   1      8    10.150     5.382    0.38E-03    0.45E-03    0.19E-06
  PAW_PBE H 15Jun2001                   :
 energy of atom  1       EATOM=  -12.4884
 kinetic energy error for atom=    0.0098 (will be added to EATOM!!)
  PAW_PBE C 08Apr2002                   :
 energy of atom  2       EATOM= -147.1560
 kinetic energy error for atom=    0.0288 (will be added to EATOM!!)
  PAW_PBE N 08Apr2002                   :
 energy of atom  3       EATOM= -264.5486
 kinetic energy error for atom=    0.0736 (will be added to EATOM!!)
  PAW_PBE O 08Apr2002                   :
 energy of atom  4       EATOM= -432.3788
 kinetic energy error for atom=    0.1156 (will be added to EATOM!!)
 
 
 POSCAR: H12 C6 N2 O2                            
  positions in direct lattice
  velocities in cartesian coordinates
 exchange correlation table for  LEXCH =        8
   RHO(1)=    0.500       N(1)  =     2000
   RHO(2)=  100.500       N(2)  =     4000

 VTST: version 3.2, (02/03/18)

 CHAIN: initializing optimizer
 
 OPT: Using FIRE optimizer
 OPT: FIRE, Init
 OPT: FIRE, MAXMOVE       0.20000
 OPT: FIRE, TIMESTEP      0.10000
 OPT: FIRE, FTIMEMAX      1.00000
 OPT: FIRE, FTIMEINC      1.10000
 OPT: FIRE, FTIMEDEC      0.50000
 OPT: FIRE, FALPHADEC     0.99000
 OPT: FIRE, FALPHA        0.10000
 OPT: FIRE, FNMIN         5
 
 CHAIN: Read ICHAIN            0
 CHAIN: Running the NEB
 NEB:          SPRING     -5.000000
 NEB:          LCLIMB      T
 NEB:     LTANGENTOLD      F
 NEB:           LDNEB      F
 NEB:        LDNEBORG      F
 NEB:        LNEBCELL      F
 NEB:          EFIRST      0.000000
 NEB:           ELAST      0.000000
 
 POSCAR: H12 C6 N2 O2                            
  positions in direct lattice
  No initial velocities read in
 
 POSCAR: H12 C6 N2 O2                            
  positions in direct lattice
  No initial velocities read in
 


--------------------------------------------------------------------------------------------------------


 ion  position               nearest neighbor table
   1  0.378  0.538  0.500-  13 1.09
   2  0.375  0.481  0.484-  13 1.10
   3  0.385  0.495  0.541-  13 1.10
   4  0.449  0.449  0.531-  19 1.02
   5  0.520  0.435  0.532-  15 1.10
   6  0.556  0.429  0.459-  16 1.10
   7  0.515  0.465  0.434-  16 1.10
   8  0.500  0.411  0.456-  16 1.10
   9  0.514  0.546  0.490-  20 1.03
  10  0.586  0.575  0.548-  18 1.10
  11  0.609  0.563  0.495-  18 1.10
  12  0.565  0.604  0.501-  18 1.10
  13  0.392  0.505  0.506-   1 1.09   2 1.10   3 1.10  14 1.52
  14  0.442  0.506  0.496-  21 1.24  19 1.36  13 1.52
  15  0.513  0.461  0.507-   5 1.10  19 1.48  16 1.53  17 1.55
  16  0.522  0.440  0.461-   7 1.10   8 1.10   6 1.10  15 1.53
  17  0.550  0.495  0.518-  22 1.24  20 1.35  15 1.55
  18  0.578  0.572  0.513-  12 1.10  11 1.10  10 1.10  20 1.45
  19  0.466  0.473  0.514-   4 1.02  14 1.36  15 1.48
  20  0.543  0.538  0.506-   9 1.03  17 1.35  18 1.45
  21  0.458  0.537  0.473-  14 1.24
  22  0.584  0.481  0.536-  17 1.24
 
  LATTYP: Found a simple cubic cell.
 ALAT       =    30.0000000000
  
  Lattice vectors:
  
 A1 = (  30.0000000000,   0.0000000000,   0.0000000000)
 A2 = (   0.0000000000,  30.0000000000,   0.0000000000)
 A3 = (   0.0000000000,   0.0000000000,  30.0000000000)


Analysis of symmetry for initial positions (statically):
=====================================================================
 Subroutine PRICEL returns:
 Original cell was already a primitive cell.
 

 Routine SETGRP: Setting up the symmetry group for a 
 simple cubic supercell.


 Subroutine GETGRP returns: Found  1 space group operations
 (whereof  1 operations were pure point group operations)
 out of a pool of 48 trial point group operations.


The static configuration has the point symmetry C_1 .


Analysis of symmetry for dynamics (positions and initial velocities):
=====================================================================
 Subroutine PRICEL returns:
 Original cell was already a primitive cell.
 

 Routine SETGRP: Setting up the symmetry group for a 
 simple cubic supercell.


 Subroutine GETGRP returns: Found  1 space group operations
 (whereof  1 operations were pure point group operations)
 out of a pool of 48 trial point group operations.


The dynamic configuration has the point symmetry C_1 .
 
 
 KPOINTS: Mo2C                                    

Automatic generation of k-mesh.
Space group operators:
 irot       det(A)        alpha          n_x          n_y          n_z        tau_x        tau_y        tau_z
    1     1.000000     0.000000     1.000000     0.000000     0.000000     0.000000     0.000000     0.000000
 
 Subroutine IBZKPT returns following result:
 ===========================================
 
 Found      4 irreducible k-points:
 
 Following reciprocal coordinates:
            Coordinates               Weight
  0.250000  0.250000  0.250000      2.000000
 -0.250000  0.250000  0.250000      2.000000
  0.250000 -0.250000  0.250000      2.000000
 -0.250000 -0.250000  0.250000      2.000000
 
 Following cartesian coordinates:
            Coordinates               Weight
  0.008333  0.008333  0.008333      2.000000
 -0.008333  0.008333  0.008333      2.000000
  0.008333 -0.008333  0.008333      2.000000
 -0.008333 -0.008333  0.008333      2.000000
 


--------------------------------------------------------------------------------------------------------




 Dimension of arrays:
   k-points           NKPTS =      4   k-points in BZ     NKDIM =      4   number of bands    NBANDS=     41
   number of dos      NEDOS =    301   number of ions     NIONS =     22
   non local maximal  LDIM  =      4   non local SUM 2l+1 LMDIM =      8
   total plane-waves  NPLWV = ******
   max r-space proj   IRMAX =   2395   max aug-charges    IRDMAX=   1821
   dimension x,y,z NGX =   150 NGY =  150 NGZ =  150
   dimension x,y,z NGXF=   300 NGYF=  300 NGZF=  300
   support grid    NGXF=   300 NGYF=  300 NGZF=  300
   ions per type =              12   6   2   2
 NGX,Y,Z   is equivalent  to a cutoff of   8.31,  8.31,  8.31 a.u.
 NGXF,Y,Z  is equivalent  to a cutoff of  16.62, 16.62, 16.62 a.u.


 I would recommend the setting:
   dimension x,y,z NGX =   147 NGY =  147 NGZ =  147
 SYSTEM =  unknown system                          
 POSCAR =  H12 C6 N2 O2                            

 Startparameter for this run:
   NWRITE =      2    write-flag & timer
   PREC   = normal    normal or accurate (medium, high low for compatibility)
   ISTART =      0    job   : 0-new  1-cont  2-samecut
   ICHARG =      2    charge: 1-file 2-atom 10-const
   ISPIN  =      1    spin polarized calculation?
   LNONCOLLINEAR =      F non collinear calculations
   LSORBIT =      F    spin-orbit coupling
   INIWAV =      1    electr: 0-lowe 1-rand  2-diag
   LASPH  =      F    aspherical Exc in radial PAW
   METAGGA=      F    non-selfconsistent MetaGGA calc.

 Electronic Relaxation 1
   ENCUT  =  400.0 eV  29.40 Ry    5.42 a.u.  48.92 48.92 48.92*2*pi/ulx,y,z
   ENINI  =  400.0     initial cutoff
   ENAUG  =  644.9 eV  augmentation charge cutoff
   NELM   =    500;   NELMIN=  6; NELMDL= -5     # of ELM steps 
   EDIFF  = 0.1E-03   stopping-criterion for ELM
   LREAL  =      T    real-space projection
   NLSPLINE    = F    spline interpolate recip. space projectors
   LCOMPAT=      F    compatible to vasp.4.4
   GGA_COMPAT  = T    GGA compatible to vasp.4.4-vasp.4.6
   LMAXPAW     = -100 max onsite density
   LMAXMIX     =    2 max onsite mixed and CHGCAR
   VOSKOWN=      0    Vosko Wilk Nusair interpolation
   ROPT   =   -0.00050  -0.00050  -0.00050  -0.00050
 Ionic relaxation
   EDIFFG = -.1E+00   stopping-criterion for IOM
   NSW    =    300    number of steps for IOM
   NBLOCK =      1;   KBLOCK =    300    inner block; outer block 
   IBRION =      3    ionic relax: 0-MD 1-quasi-New 2-CG
   NFREE  =      0    steps in history (QN), initial steepest desc. (CG)
   ISIF   =      2    stress and relaxation
   IWAVPR =     11    prediction:  0-non 1-charg 2-wave 3-comb
   ISYM   =      2    0-nonsym 1-usesym 2-fastsym
   LCORR  =      T    Harris-Foulkes like correction to forces

   POTIM  = 0.0000    time-step for ionic-motion
   TEIN   =    0.0    initial temperature
   TEBEG  =    0.0;   TEEND  =   0.0 temperature during run
   SMASS  =   2.00    Nose mass-parameter (am)
   estimated Nose-frequenzy (Omega)   =  0.24E+10 period in steps =  0.00 mass=   0.137E-25a.u.
   SCALEE = 1.0000    scale energy and forces
   NPACO  =    256;   APACO  = 16.0  distance and # of slots for P.C.
   PSTRESS=    0.0 pullay stress

  Mass of Ions in am
   POMASS =   1.00 12.01 14.00 16.00
  Ionic Valenz
   ZVAL   =   1.00  4.00  5.00  6.00
  Atomic Wigner-Seitz radii
   RWIGS  =  -1.00 -1.00 -1.00 -1.00
  virtual crystal weights 
   VCA    =   1.00  1.00  1.00  1.00
   NELECT =      58.0000    total number of electrons
   NUPDOWN=      -1.0000    fix difference up-down

 DOS related values:
   EMIN   =  10.00;   EMAX   =-10.00  energy-range for DOS
   EFERMI =   0.00
   ISMEAR =     0;   SIGMA  =   0.20  broadening in eV -4-tet -1-fermi 0-gaus

 Electronic relaxation 2 (details)
   IALGO  =     38    algorithm
   LDIAG  =      T    sub-space diagonalisation (order eigenvalues)
   LSUBROT=      F    optimize rotation matrix (better conditioning)
   TURBO    =      0    0=normal 1=particle mesh
   IRESTART =      0    0=no restart 2=restart with 2 vectors
   NREBOOT  =      0    no. of reboots
   NMIN     =      0    reboot dimension
   EREF     =   0.00    reference energy to select bands
   IMIX   =      4    mixing-type and parameters
     AMIX     =   0.40;   BMIX     =  1.00
     AMIX_MAG =   1.60;   BMIX_MAG =  1.00
     AMIN     =   0.10
     WC   =   100.;   INIMIX=   1;  MIXPRE=   1;  MAXMIX= -45

 Intra band minimization:
   WEIMIN = 0.0010     energy-eigenvalue tresh-hold
   EBREAK =  0.61E-06  absolut break condition
   DEPER  =   0.30     relativ break condition  

   TIME   =   0.40     timestep for ELM

  volume/ion in A,a.u.               =    1227.27      8282.05
  Fermi-wavevector in a.u.,A,eV,Ry     =   0.211234  0.399174  0.607087  0.044620
  Thomas-Fermi vector in A             =   0.980021
 
 Write flags
   LWAVE  =      F    write WAVECAR
   LCHARG =      F    write CHGCAR
   LVTOT  =      F    write LOCPOT, total local potential
   LVHAR  =      F    write LOCPOT, Hartree potential only
   LELF   =      F    write electronic localiz. function (ELF)
   LORBIT =      0    0 simple, 1 ext, 2 COOP (PROOUT)


 Dipole corrections
   LMONO  =      F    monopole corrections only (constant potential shift)
   LDIPOL =      F    correct potential (dipole corrections)
   IDIPOL =      0    1-x, 2-y, 3-z, 4-all directions 
   EPSILON=  1.0000000 bulk dielectric constant

 Exchange correlation treatment:
   GGA     =    PE    GGA type
   LEXCH   =     8    internal setting for exchange type
   VOSKOWN=      0    Vosko Wilk Nusair interpolation
   LHFCALC =     F    Hartree Fock is set to
   LHFONE  =     F    Hartree Fock one center treatment
   AEXX    =    0.0000 exact exchange contribution

 Linear response parameters
   LEPSILON=     F    determine dielectric tensor
   LRPA    =     F    only Hartree local field effects (RPA)
   LNABLA  =     F    use nabla operator in PAW spheres
   LVEL    =     F    velocity operator in full k-point grid
   LINTERFAST=   F  fast interpolation
   KINTER  =     0    interpolate to denser k-point grid
   CSHIFT  =0.1000    complex shift for real part using Kramers Kronig
   OMEGAMAX=  -1.0    maximum frequency
   DEG_THRESHOLD= 0.2000000E-02 threshold for treating states as degnerate
   RTIME   =    0.100 relaxation time in fs

 Orbital magnetization related:
   ORBITALMAG=     F  switch on orbital magnetization
   LCHIMAG   =     F  perturbation theory with respect to B field
   DQ        =  0.001000  dq finite difference perturbation B field



--------------------------------------------------------------------------------------------------------


 quickmin algorithm: (dynamic with friction)
 charge density and potential will be updated during run
 non-spin polarized calculation
 Variant of blocked Davidson
 Davidson routine will perform the subspace rotation
 perform sub-space diagonalisation
    after iterative eigenvector-optimisation
 modified Broyden-mixing scheme, WC =      100.0
 initial mixing is a Kerker type mixing with AMIX =  0.4000 and BMIX =      1.0000
 Hartree-type preconditioning will be used
 using additional bands           12
 real space projection scheme for non local part
 use partial core corrections
 calculate Harris-corrections to forces 
   (improved forces if not selfconsistent)
 use gradient corrections 
 use of overlap-Matrix (Vanderbilt PP)
 Gauss-broadening in eV      SIGMA  =   0.20


--------------------------------------------------------------------------------------------------------


  energy-cutoff  :      400.00
  volume of cell :    27000.00
      direct lattice vectors                 reciprocal lattice vectors
    30.000000000  0.000000000  0.000000000     0.033333333  0.000000000  0.000000000
     0.000000000 30.000000000  0.000000000     0.000000000  0.033333333  0.000000000
     0.000000000  0.000000000 30.000000000     0.000000000  0.000000000  0.033333333

  length of vectors
    30.000000000 30.000000000 30.000000000     0.033333333  0.033333333  0.033333333


 
 k-points in units of 2pi/SCALE and weight: Mo2C                                    
   0.00833333  0.00833333  0.00833333       0.250
  -0.00833333  0.00833333  0.00833333       0.250
   0.00833333 -0.00833333  0.00833333       0.250
  -0.00833333 -0.00833333  0.00833333       0.250
 
 k-points in reciprocal lattice and weights: Mo2C                                    
   0.25000000  0.25000000  0.25000000       0.250
  -0.25000000  0.25000000  0.25000000       0.250
   0.25000000 -0.25000000  0.25000000       0.250
  -0.25000000 -0.25000000  0.25000000       0.250
 
 position of ions in fractional coordinates (direct lattice) 
   0.37792808  0.53793115  0.50044666
   0.37536696  0.48112627  0.48389624
   0.38511038  0.49459347  0.54084385
   0.44864267  0.44895855  0.53059642
   0.52002435  0.43475483  0.53188982
   0.55632685  0.42899766  0.45874354
   0.51534406  0.46450597  0.43391991
   0.49969721  0.41131154  0.45576709
   0.51380154  0.54611996  0.49028324
   0.58604451  0.57518077  0.54843603
   0.60854038  0.56345491  0.49499203
   0.56506119  0.60394809  0.50058255
   0.39209949  0.50484703  0.50624960
   0.44169201  0.50642265  0.49609597
   0.51334633  0.46080424  0.50675384
   0.52153026  0.44031467  0.46070696
   0.54986501  0.49545638  0.51807252
   0.57753796  0.57188511  0.51282340
   0.46626818  0.47285633  0.51424397
   0.54347788  0.53830217  0.50583896
   0.45784369  0.53674856  0.47286191
   0.58445070  0.48147876  0.53595289
 
 position of ions in cartesian coordinates  (Angst):
  11.33784253 16.13793461 15.01339978
  11.26100876 14.43378815 14.51688717
  11.55331144 14.83780398 16.22531546
  13.45928008 13.46875648 15.91789252
  15.60073063 13.04264505 15.95669450
  16.68980559 12.86992994 13.76230626
  15.46032178 13.93517908 13.01759721
  14.99091636 12.33934624 13.67301262
  15.41404623 16.38359879 14.70849731
  17.58133516 17.25542313 16.45308094
  18.25621143 16.90364742 14.84976081
  16.95183563 18.11844284 15.01747646
  11.76298485 15.14541096 15.18748806
  13.25076020 15.19267961 14.88287897
  15.40039005 13.82412716 15.20261530
  15.64590768 13.20944006 13.82120867
  16.49595021 14.86369142 15.54217547
  17.32613877 17.15655320 15.38470207
  13.98804551 14.18568984 15.42731900
  16.30433647 16.14906505 15.17516873
  13.73531074 16.10245688 14.18585730
  17.53352103 14.44436274 16.07858675
 


--------------------------------------------------------------------------------------------------------


 k-point  1 :   0.2500 0.2500 0.2500  plane waves:  490454
 k-point  2 :  -0.2500 0.2500 0.2500  plane waves:  490454
 k-point  3 :   0.2500-0.2500 0.2500  plane waves:  490454
 k-point  4 :  -0.2500-0.2500 0.2500  plane waves:  490454

 maximum and minimum number of plane-waves per node :    490454   490454

 maximum number of plane-waves:    490454
 maximum index in each direction: 
   IXMAX=   49   IYMAX=   49   IZMAX=   48
   IXMIN=  -49   IYMIN=  -49   IZMIN=  -49

 WARNING: aliasing errors must be expected set NGX to 198 to avoid them
 WARNING: aliasing errors must be expected set NGY to 198 to avoid them
 WARNING: aliasing errors must be expected set NGZ to 196 to avoid them
 aliasing errors are usually negligible using standard VASP settings
 and one can safely disregard these warnings

 serial   3D FFT for wavefunctions
 parallel 3D FFT for charge:
    minimum data exchange during FFTs selected (reduces bandwidth)


 total amount of memory used by VASP on root node  4333706. kBytes
========================================================================

   base      :      30000. kBytes
   nonlr-proj:       2401. kBytes
   fftplans  :     924480. kBytes
   grid      :    2089440. kBytes
   one-center:         67. kBytes
   wavefun   :    1287318. kBytes
 
     INWAV:  cpu time    0.0010: real time    0.0004
 Broyden mixing: mesh for mixing (old mesh)
   NGX = 97   NGY = 97   NGZ = 97
  (NGX  =300   NGY  =300   NGZ  =300)
  gives a total of 912673 points

 initial charge density was supplied:
 charge density of overlapping atoms calculated
 number of electron      58.0000000 magnetization 
 keeping initial charge density in first step


--------------------------------------------------------------------------------------------------------


 Maximum index for non-local projection operator         2272
 Maximum index for augmentation-charges         1570 (set IRDMAX)


--------------------------------------------------------------------------------------------------------


 First call to EWALD:  gamma=   0.059
 Maximum number of real-space cells 3x 3x 3
 Maximum number of reciprocal cells 3x 3x 3

 FEWALD executed in parallel
    FEWALD:  cpu time    0.0060: real time    0.0054


----------------------------------------- Iteration    1(   1)  ---------------------------------------


    POTLOK:  cpu time   25.7711: real time   25.7502
    SETDIJ:  cpu time    0.0290: real time    0.0295
     EDDAV:  cpu time  303.2109: real time  302.9629
       DOS:  cpu time    0.0000: real time    0.0009
    --------------------------------------------
      LOOP:  cpu time  329.0130: real time  328.7485

 eigenvalue-minimisations  :   392
 total energy-change (2. order) : 0.6100316E+03  (-0.7959214E+03)
 number of electron      58.0000000 magnetization 
 augmentation part       58.0000000 magnetization 

 Free energy of the ion-electron system (eV)
  ---------------------------------------------------
  alpha Z        PSCENC =         0.51957394
  Ewald energy   TEWEN  =      6084.17347767
  -Hartree energ DENC   =     -7827.25045054
  -exchange      EXHF   =         0.00000000
  -V(xc)+E(xc)   XCENC  =       202.00078757
  PAW double counting   =      1779.70502452    -1789.20730229
  entropy T*S    EENTRO =        -0.80544671
  eigenvalues    EBANDS =      -265.08738024
  atomic energy  EATOM  =      2425.98333211
  Solvation  Ediel_sol  =         0.00000000
  ---------------------------------------------------
  free energy    TOTEN  =       610.03161602 eV

  energy without entropy =      610.83706273  energy(sigma->0) =      610.43433937


--------------------------------------------------------------------------------------------------------




----------------------------------------- Iteration    1(   2)  ---------------------------------------


     EDDAV:  cpu time  417.8625: real time  417.5217
       DOS:  cpu time    0.0000: real time    0.0007
    --------------------------------------------
      LOOP:  cpu time  417.8645: real time  417.5255

 eigenvalue-minimisations  :   573
 total energy-change (2. order) :-0.3363107E+03  (-0.3265179E+03)
 number of electron      58.0000000 magnetization 
 augmentation part       58.0000000 magnetization 

 Free energy of the ion-electron system (eV)
  ---------------------------------------------------
  alpha Z        PSCENC =         0.51957394
  Ewald energy   TEWEN  =      6084.17347767
  -Hartree energ DENC   =     -7827.25045054
  -exchange      EXHF   =         0.00000000
  -V(xc)+E(xc)   XCENC  =       202.00078757
  PAW double counting   =      1779.70502452    -1789.20730229
  entropy T*S    EENTRO =        -0.48300566
  eigenvalues    EBANDS =      -601.72055142
  atomic energy  EATOM  =      2425.98333211
  Solvation  Ediel_sol  =         0.00000000
  ---------------------------------------------------
  free energy    TOTEN  =       273.72088590 eV

  energy without entropy =      274.20389156  energy(sigma->0) =      273.96238873


--------------------------------------------------------------------------------------------------------




----------------------------------------- Iteration    1(   3)  ---------------------------------------


     EDDAV:  cpu time  364.8295: real time  364.5326
       DOS:  cpu time    0.0000: real time    0.0005
    --------------------------------------------
      LOOP:  cpu time  364.8315: real time  364.5363

 eigenvalue-minimisations  :   488
 total energy-change (2. order) :-0.3166041E+03  (-0.3082380E+03)
 number of electron      58.0000000 magnetization 
 augmentation part       58.0000000 magnetization 

 Free energy of the ion-electron system (eV)
  ---------------------------------------------------
  alpha Z        PSCENC =         0.51957394
  Ewald energy   TEWEN  =      6084.17347767
  -Hartree energ DENC   =     -7827.25045054
  -exchange      EXHF   =         0.00000000
  -V(xc)+E(xc)   XCENC  =       202.00078757
  PAW double counting   =      1779.70502452    -1789.20730229
  entropy T*S    EENTRO =        -0.00000145
  eigenvalues    EBANDS =      -918.80765483
  atomic energy  EATOM  =      2425.98333211
  Solvation  Ediel_sol  =         0.00000000
  ---------------------------------------------------
  free energy    TOTEN  =       -42.88321330 eV

  energy without entropy =      -42.88321186  energy(sigma->0) =      -42.88321258


--------------------------------------------------------------------------------------------------------




----------------------------------------- Iteration    1(   4)  ---------------------------------------


     EDDAV:  cpu time  306.7874: real time  306.5376
       DOS:  cpu time    0.0010: real time    0.0005
    --------------------------------------------
      LOOP:  cpu time  306.7894: real time  306.5416

 eigenvalue-minimisations  :   397
 total energy-change (2. order) :-0.9368869E+02  (-0.9353515E+02)
 number of electron      58.0000000 magnetization 
 augmentation part       58.0000000 magnetization 

 Free energy of the ion-electron system (eV)
  ---------------------------------------------------
  alpha Z        PSCENC =         0.51957394
  Ewald energy   TEWEN  =      6084.17347767
  -Hartree energ DENC   =     -7827.25045054
  -exchange      EXHF   =         0.00000000
  -V(xc)+E(xc)   XCENC  =       202.00078757
  PAW double counting   =      1779.70502452    -1789.20730229
  entropy T*S    EENTRO =         0.00000000
  eigenvalues    EBANDS =     -1012.49634992
  atomic energy  EATOM  =      2425.98333211
  Solvation  Ediel_sol  =         0.00000000
  ---------------------------------------------------
  free energy    TOTEN  =      -136.57190695 eV

  energy without entropy =     -136.57190695  energy(sigma->0) =     -136.57190695


--------------------------------------------------------------------------------------------------------




----------------------------------------- Iteration    1(   5)  ---------------------------------------


     EDDAV:  cpu time  348.7560: real time  348.4718
       DOS:  cpu time    0.0000: real time    0.0005
    CHARGE:  cpu time   20.1339: real time   20.1177
    MIXING:  cpu time    0.6369: real time    0.6368
    --------------------------------------------
      LOOP:  cpu time  369.5278: real time  369.2307

 eigenvalue-minimisations  :   464
 total energy-change (2. order) :-0.5248174E+01  (-0.5236582E+01)
 number of electron      57.9999960 magnetization 
 augmentation part        2.9692995 magnetization 

 Broyden mixing:
  rms(total) = 0.19533E+01    rms(broyden)= 0.19511E+01
  rms(prec ) = 0.20286E+01
  weight for this iteration     100.00

 Free energy of the ion-electron system (eV)
  ---------------------------------------------------
  alpha Z        PSCENC =         0.51957394
  Ewald energy   TEWEN  =      6084.17347767
  -Hartree energ DENC   =     -7827.25045054
  -exchange      EXHF   =         0.00000000
  -V(xc)+E(xc)   XCENC  =       202.00078757
  PAW double counting   =      1779.70502452    -1789.20730229
  entropy T*S    EENTRO =         0.00000000
  eigenvalues    EBANDS =     -1017.74452375
  atomic energy  EATOM  =      2425.98333211
  Solvation  Ediel_sol  =         0.00000000
  ---------------------------------------------------
  free energy    TOTEN  =      -141.82008078 eV

  energy without entropy =     -141.82008078  energy(sigma->0) =     -141.82008078


--------------------------------------------------------------------------------------------------------




----------------------------------------- Iteration    1(   6)  ---------------------------------------


    POTLOK:  cpu time   23.1095: real time   23.0904
    SETDIJ:  cpu time    0.0290: real time    0.0289
     EDDAV:  cpu time  311.5936: real time  311.3378
       DOS:  cpu time    0.0010: real time    0.0005
    CHARGE:  cpu time   17.3374: real time   17.3237
    MIXING:  cpu time    0.6649: real time    0.6644
    --------------------------------------------
      LOOP:  cpu time  352.7364: real time  352.4493

 eigenvalue-minimisations  :   445
 total energy-change (2. order) : 0.1015717E+02  (-0.2357659E+01)
 number of electron      57.9999956 magnetization 
 augmentation part        2.6297364 magnetization 

 Broyden mixing:
  rms(total) = 0.99566E+00    rms(broyden)= 0.99523E+00
  rms(prec ) = 0.10239E+01
  weight for this iteration     100.00

 eigenvalues of (default mixing * dielectric matrix)
  average eigenvalue GAMMA=   1.2804
  1.2804

 Free energy of the ion-electron system (eV)
  ---------------------------------------------------
  alpha Z        PSCENC =         0.51957394
  Ewald energy   TEWEN  =      6084.17347767
  -Hartree energ DENC   =     -7942.06925756
  -exchange      EXHF   =         0.00000000
  -V(xc)+E(xc)   XCENC  =       208.08913792
  PAW double counting   =      2774.22571537    -2785.08240063
  entropy T*S    EENTRO =         0.00000000
  eigenvalues    EBANDS =      -897.50248516
  atomic energy  EATOM  =      2425.98333211
  Solvation  Ediel_sol  =         0.00000000
  ---------------------------------------------------
  free energy    TOTEN  =      -131.66290635 eV

  energy without entropy =     -131.66290635  energy(sigma->0) =     -131.66290635


--------------------------------------------------------------------------------------------------------




----------------------------------------- Iteration    1(   7)  ---------------------------------------


    POTLOK:  cpu time   19.2361: real time   19.2197
    SETDIJ:  cpu time    0.0280: real time    0.0284
     EDDAV:  cpu time  312.6625: real time  312.4084
       DOS:  cpu time    0.0000: real time    0.0005
    CHARGE:  cpu time   20.7928: real time   20.7759
    MIXING:  cpu time    0.8299: real time    0.8292
    --------------------------------------------
      LOOP:  cpu time  353.5513: real time  353.2658

 eigenvalue-minimisations  :   415
 total energy-change (2. order) : 0.1740622E+01  (-0.4666064E+00)
 number of electron      57.9999955 magnetization 
 augmentation part        2.6158980 magnetization 

 Broyden mixing:
  rms(total) = 0.51460E+00    rms(broyden)= 0.51448E+00
  rms(prec ) = 0.52721E+00
  weight for this iteration     100.00

 eigenvalues of (default mixing * dielectric matrix)
  average eigenvalue GAMMA=   1.5698
  1.1127  2.0269

 Free energy of the ion-electron system (eV)
  ---------------------------------------------------
  alpha Z        PSCENC =         0.51957394
  Ewald energy   TEWEN  =      6084.17347767
  -Hartree energ DENC   =     -8004.22867754
  -exchange      EXHF   =         0.00000000
  -V(xc)+E(xc)   XCENC  =       211.13399991
  PAW double counting   =      3742.83516200    -3753.96459258
  entropy T*S    EENTRO =         0.00000000
  eigenvalues    EBANDS =      -836.37456006
  atomic energy  EATOM  =      2425.98333211
  Solvation  Ediel_sol  =         0.00000000
  ---------------------------------------------------
  free energy    TOTEN  =      -129.92228455 eV

  energy without entropy =     -129.92228455  energy(sigma->0) =     -129.92228455


--------------------------------------------------------------------------------------------------------




----------------------------------------- Iteration    1(   8)  ---------------------------------------


    POTLOK:  cpu time   23.5714: real time   23.5534
    SETDIJ:  cpu time    0.0290: real time    0.0294
     EDDAV:  cpu time  322.2580: real time  321.9945
       DOS:  cpu time    0.0000: real time    0.0005
    CHARGE:  cpu time   20.7858: real time   20.7679
    MIXING:  cpu time    0.7679: real time    0.7683
    --------------------------------------------
      LOOP:  cpu time  367.4141: real time  367.1178

 eigenvalue-minimisations  :   440
 total energy-change (2. order) : 0.4863040E+00  (-0.8359084E-01)
 number of electron      57.9999956 magnetization 
 augmentation part        2.5901584 magnetization 

 Broyden mixing:
  rms(total) = 0.15181E+00    rms(broyden)= 0.15174E+00
  rms(prec ) = 0.15962E+00
  weight for this iteration     100.00

 eigenvalues of (default mixing * dielectric matrix)
  average eigenvalue GAMMA=   1.5428
  2.3871  0.9589  1.2824

 Free energy of the ion-electron system (eV)
  ---------------------------------------------------
  alpha Z        PSCENC =         0.51957394
  Ewald energy   TEWEN  =      6084.17347767
  -Hartree energ DENC   =     -8044.22765847
  -exchange      EXHF   =         0.00000000
  -V(xc)+E(xc)   XCENC  =       213.22643353
  PAW double counting   =      4558.43833674    -4569.74386963
  entropy T*S    EENTRO =         0.00000000
  eigenvalues    EBANDS =      -797.80560641
  atomic energy  EATOM  =      2425.98333211
  Solvation  Ediel_sol  =         0.00000000
  ---------------------------------------------------
  free energy    TOTEN  =      -129.43598052 eV

  energy without entropy =     -129.43598052  energy(sigma->0) =     -129.43598052


--------------------------------------------------------------------------------------------------------




----------------------------------------- Iteration    1(   9)  ---------------------------------------


    POTLOK:  cpu time   21.4427: real time   21.4252
    SETDIJ:  cpu time    0.0290: real time    0.0289
     EDDAV:  cpu time  332.9104: real time  332.6396
       DOS:  cpu time    0.0000: real time    0.0005
    CHARGE:  cpu time   20.6839: real time   20.6681
    MIXING:  cpu time    0.8959: real time    0.8948
    --------------------------------------------
      LOOP:  cpu time  375.9648: real time  375.6609

 eigenvalue-minimisations  :   464
 total energy-change (2. order) : 0.6838102E-01  (-0.1016769E-01)
 number of electron      57.9999956 magnetization 
 augmentation part        2.5808851 magnetization 

 Broyden mixing:
  rms(total) = 0.56981E-01    rms(broyden)= 0.56953E-01
  rms(prec ) = 0.65665E-01
  weight for this iteration     100.00

 eigenvalues of (default mixing * dielectric matrix)
  average eigenvalue GAMMA=   1.5217
  2.1921  1.0522  1.0522  1.7904

 Free energy of the ion-electron system (eV)
  ---------------------------------------------------
  alpha Z        PSCENC =         0.51957394
  Ewald energy   TEWEN  =      6084.17347767
  -Hartree energ DENC   =     -8058.04110824
  -exchange      EXHF   =         0.00000000
  -V(xc)+E(xc)   XCENC  =       213.79260072
  PAW double counting   =      4793.00469323    -4804.28573606
  entropy T*S    EENTRO =         0.00000000
  eigenvalues    EBANDS =      -784.51443287
  atomic energy  EATOM  =      2425.98333211
  Solvation  Ediel_sol  =         0.00000000
  ---------------------------------------------------
  free energy    TOTEN  =      -129.36759950 eV

  energy without entropy =     -129.36759950  energy(sigma->0) =     -129.36759950


--------------------------------------------------------------------------------------------------------




----------------------------------------- Iteration    1(  10)  ---------------------------------------


    POTLOK:  cpu time   23.3734: real time   23.3557
    SETDIJ:  cpu time    0.0300: real time    0.0296
     EDDAV:  cpu time  310.9487: real time  310.6948
       DOS:  cpu time    0.0000: real time    0.0005
    CHARGE:  cpu time   19.7570: real time   19.7427
    MIXING:  cpu time    0.8869: real time    0.8858
    --------------------------------------------
      LOOP:  cpu time  354.9990: real time  354.7131

 eigenvalue-minimisations  :   424
 total energy-change (2. order) : 0.1162393E-01  (-0.2502227E-02)
 number of electron      57.9999956 magnetization 
 augmentation part        2.5873844 magnetization 

 Broyden mixing:
  rms(total) = 0.25629E-01    rms(broyden)= 0.25607E-01
  rms(prec ) = 0.35841E-01
  weight for this iteration     100.00

 eigenvalues of (default mixing * dielectric matrix)
  average eigenvalue GAMMA=   1.4927
  2.1716  2.1716  0.9758  0.9758  1.1688

 Free energy of the ion-electron system (eV)
  ---------------------------------------------------
  alpha Z        PSCENC =         0.51957394
  Ewald energy   TEWEN  =      6084.17347767
  -Hartree energ DENC   =     -8063.04837605
  -exchange      EXHF   =         0.00000000
  -V(xc)+E(xc)   XCENC  =       213.80129661
  PAW double counting   =      4785.73675455    -4796.96705275
  entropy T*S    EENTRO =         0.00000000
  eigenvalues    EBANDS =      -779.55498166
  atomic energy  EATOM  =      2425.98333211
  Solvation  Ediel_sol  =         0.00000000
  ---------------------------------------------------
  free energy    TOTEN  =      -129.35597557 eV

  energy without entropy =     -129.35597557  energy(sigma->0) =     -129.35597557


--------------------------------------------------------------------------------------------------------




----------------------------------------- Iteration    1(  11)  ---------------------------------------


    POTLOK:  cpu time   21.8257: real time   21.8085
    SETDIJ:  cpu time    0.0290: real time    0.0290
     EDDAV:  cpu time  332.4105: real time  332.1399
       DOS:  cpu time    0.0000: real time    0.0005
    CHARGE:  cpu time   20.3599: real time   20.3428
    MIXING:  cpu time    1.0678: real time    1.0670
    --------------------------------------------
      LOOP:  cpu time  375.6959: real time  375.3914

 eigenvalue-minimisations  :   448
 total energy-change (2. order) : 0.5527668E-02  (-0.8435272E-03)
 number of electron      57.9999956 magnetization 
 augmentation part        2.5830025 magnetization 

 Broyden mixing:
  rms(total) = 0.16196E-01    rms(broyden)= 0.16189E-01
  rms(prec ) = 0.25037E-01
  weight for this iteration     100.00

 eigenvalues of (default mixing * dielectric matrix)
  average eigenvalue GAMMA=   1.5483
  2.4754  2.4754  0.9466  0.9466  1.2230  1.2230

 Free energy of the ion-electron system (eV)
  ---------------------------------------------------
  alpha Z        PSCENC =         0.51957394
  Ewald energy   TEWEN  =      6084.17347767
  -Hartree energ DENC   =     -8068.98873497
  -exchange      EXHF   =         0.00000000
  -V(xc)+E(xc)   XCENC  =       213.90970459
  PAW double counting   =      4789.57080376    -4800.80122219
  entropy T*S    EENTRO =         0.00000000
  eigenvalues    EBANDS =      -773.71738282
  atomic energy  EATOM  =      2425.98333211
  Solvation  Ediel_sol  =         0.00000000
  ---------------------------------------------------
  free energy    TOTEN  =      -129.35044790 eV

  energy without entropy =     -129.35044790  energy(sigma->0) =     -129.35044790


--------------------------------------------------------------------------------------------------------




----------------------------------------- Iteration    1(  12)  ---------------------------------------


    POTLOK:  cpu time   23.8474: real time   23.8275
    SETDIJ:  cpu time    0.0290: real time    0.0290
     EDDAV:  cpu time  263.4050: real time  263.1915
       DOS:  cpu time    0.0000: real time    0.0005
    CHARGE:  cpu time   18.3662: real time   18.3508
    MIXING:  cpu time    1.0158: real time    1.0151
    --------------------------------------------
      LOOP:  cpu time  306.6644: real time  306.4184

 eigenvalue-minimisations  :   344
 total energy-change (2. order) :-0.9464865E-03  (-0.5699700E-03)
 number of electron      57.9999956 magnetization 
 augmentation part        2.5826909 magnetization 

 Broyden mixing:
  rms(total) = 0.98862E-02    rms(broyden)= 0.98820E-02
  rms(prec ) = 0.16104E-01
  weight for this iteration     100.00

 eigenvalues of (default mixing * dielectric matrix)
  average eigenvalue GAMMA=   1.5918
  2.7010  2.7010  1.3493  1.2302  1.2302  0.9654  0.9654

 Free energy of the ion-electron system (eV)
  ---------------------------------------------------
  alpha Z        PSCENC =         0.51957394
  Ewald energy   TEWEN  =      6084.17347767
  -Hartree energ DENC   =     -8075.57755390
  -exchange      EXHF   =         0.00000000
  -V(xc)+E(xc)   XCENC  =       213.99114166
  PAW double counting   =      4784.33384309    -4795.55423324
  entropy T*S    EENTRO =         0.00000000
  eigenvalues    EBANDS =      -767.22097572
  atomic energy  EATOM  =      2425.98333211
  Solvation  Ediel_sol  =         0.00000000
  ---------------------------------------------------
  free energy    TOTEN  =      -129.35139439 eV

  energy without entropy =     -129.35139439  energy(sigma->0) =     -129.35139439


--------------------------------------------------------------------------------------------------------




----------------------------------------- Iteration    1(  13)  ---------------------------------------


    POTLOK:  cpu time   21.5877: real time   21.5704
    SETDIJ:  cpu time    0.0290: real time    0.0289
     EDDAV:  cpu time  304.7377: real time  304.4892
       DOS:  cpu time    0.0000: real time    0.0005
    CHARGE:  cpu time   18.6992: real time   18.6841
    MIXING:  cpu time    1.1168: real time    1.1164
    --------------------------------------------
      LOOP:  cpu time  346.1734: real time  345.8938

 eigenvalue-minimisations  :   432
 total energy-change (2. order) :-0.6342198E-02  (-0.4445468E-03)
 number of electron      57.9999956 magnetization 
 augmentation part        2.5811530 magnetization 

 Broyden mixing:
  rms(total) = 0.60025E-02    rms(broyden)= 0.59967E-02
  rms(prec ) = 0.98227E-02
  weight for this iteration     100.00

 eigenvalues of (default mixing * dielectric matrix)
  average eigenvalue GAMMA=   1.6960
  4.0588  2.4940  1.6268  1.3845  0.9947  0.9947  0.9091  1.1055

 Free energy of the ion-electron system (eV)
  ---------------------------------------------------
  alpha Z        PSCENC =         0.51957394
  Ewald energy   TEWEN  =      6084.17347767
  -Hartree energ DENC   =     -8081.01441639
  -exchange      EXHF   =         0.00000000
  -V(xc)+E(xc)   XCENC  =       214.05536825
  PAW double counting   =      4779.09793716    -4790.31861019
  entropy T*S    EENTRO =         0.00000000
  eigenvalues    EBANDS =      -761.85439915
  atomic energy  EATOM  =      2425.98333211
  Solvation  Ediel_sol  =         0.00000000
  ---------------------------------------------------
  free energy    TOTEN  =      -129.35773659 eV

  energy without entropy =     -129.35773659  energy(sigma->0) =     -129.35773659


--------------------------------------------------------------------------------------------------------




----------------------------------------- Iteration    1(  14)  ---------------------------------------


    POTLOK:  cpu time   22.2906: real time   22.2732
    SETDIJ:  cpu time    0.0300: real time    0.0297
     EDDAV:  cpu time  310.0549: real time  309.8017
       DOS:  cpu time    0.0000: real time    0.0005
    CHARGE:  cpu time   18.3962: real time   18.3813
    MIXING:  cpu time    1.0818: real time    1.0807
    --------------------------------------------
      LOOP:  cpu time  351.8545: real time  351.5708

 eigenvalue-minimisations  :   416
 total energy-change (2. order) :-0.6495469E-02  (-0.1844790E-03)
 number of electron      57.9999956 magnetization 
 augmentation part        2.5805846 magnetization 

 Broyden mixing:
  rms(total) = 0.39293E-02    rms(broyden)= 0.39259E-02
  rms(prec ) = 0.60340E-02
  weight for this iteration     100.00

 eigenvalues of (default mixing * dielectric matrix)
  average eigenvalue GAMMA=   1.8127
  5.0356  2.4166  2.1962  1.2283  1.2283  1.2160  1.0445  0.9744  0.9744

 Free energy of the ion-electron system (eV)
  ---------------------------------------------------
  alpha Z        PSCENC =         0.51957394
  Ewald energy   TEWEN  =      6084.17347767
  -Hartree energ DENC   =     -8084.61407746
  -exchange      EXHF   =         0.00000000
  -V(xc)+E(xc)   XCENC  =       214.08033968
  PAW double counting   =      4773.31925719    -4784.53685429
  entropy T*S    EENTRO =         0.00000000
  eigenvalues    EBANDS =      -758.28928089
  atomic energy  EATOM  =      2425.98333211
  Solvation  Ediel_sol  =         0.00000000
  ---------------------------------------------------
  free energy    TOTEN  =      -129.36423206 eV

  energy without entropy =     -129.36423206  energy(sigma->0) =     -129.36423206


--------------------------------------------------------------------------------------------------------




----------------------------------------- Iteration    1(  15)  ---------------------------------------


    POTLOK:  cpu time   21.5087: real time   21.4918
    SETDIJ:  cpu time    0.0300: real time    0.0296
     EDDAV:  cpu time  288.1702: real time  287.9347
       DOS:  cpu time    0.0000: real time    0.0005
    CHARGE:  cpu time   19.5060: real time   19.4908
    MIXING:  cpu time    1.3528: real time    1.3528
    --------------------------------------------
      LOOP:  cpu time  330.5707: real time  330.3046

 eigenvalue-minimisations  :   408
 total energy-change (2. order) :-0.7907211E-02  (-0.8820910E-04)
 number of electron      57.9999956 magnetization 
 augmentation part        2.5803733 magnetization 

 Broyden mixing:
  rms(total) = 0.24906E-02    rms(broyden)= 0.24892E-02
  rms(prec ) = 0.36667E-02
  weight for this iteration     100.00

 eigenvalues of (default mixing * dielectric matrix)
  average eigenvalue GAMMA=   1.8967
  5.6131  2.7669  2.3520  1.7039  1.4342  1.0377  1.0377  0.9642  1.0288  1.0288

 Free energy of the ion-electron system (eV)
  ---------------------------------------------------
  alpha Z        PSCENC =         0.51957394
  Ewald energy   TEWEN  =      6084.17347767
  -Hartree energ DENC   =     -8086.40240488
  -exchange      EXHF   =         0.00000000
  -V(xc)+E(xc)   XCENC  =       214.08105826
  PAW double counting   =      4772.43647449    -4783.65259322
  entropy T*S    EENTRO =         0.00000000
  eigenvalues    EBANDS =      -756.51105764
  atomic energy  EATOM  =      2425.98333211
  Solvation  Ediel_sol  =         0.00000000
  ---------------------------------------------------
  free energy    TOTEN  =      -129.37213927 eV

  energy without entropy =     -129.37213927  energy(sigma->0) =     -129.37213927


--------------------------------------------------------------------------------------------------------




----------------------------------------- Iteration    1(  16)  ---------------------------------------


    POTLOK:  cpu time   22.2546: real time   22.2379
    SETDIJ:  cpu time    0.0290: real time    0.0290
     EDDAV:  cpu time  283.2309: real time  283.0000
       DOS:  cpu time    0.0000: real time    0.0005
    CHARGE:  cpu time   19.1401: real time   19.1241
    MIXING:  cpu time    1.3578: real time    1.3565
    --------------------------------------------
      LOOP:  cpu time  326.0154: real time  325.7518

 eigenvalue-minimisations  :   372
 total energy-change (2. order) :-0.6203146E-02  (-0.5203540E-04)
 number of electron      57.9999956 magnetization 
 augmentation part        2.5803996 magnetization 

 Broyden mixing:
  rms(total) = 0.13709E-02    rms(broyden)= 0.13703E-02
  rms(prec ) = 0.20565E-02
  weight for this iteration     100.00

 eigenvalues of (default mixing * dielectric matrix)
  average eigenvalue GAMMA=   1.9469
  6.3096  3.1734  2.3466  1.9313  1.2984  1.2984  1.0161  1.0161  1.0973  0.9640
  0.9640

 Free energy of the ion-electron system (eV)
  ---------------------------------------------------
  alpha Z        PSCENC =         0.51957394
  Ewald energy   TEWEN  =      6084.17347767
  -Hartree energ DENC   =     -8087.07453890
  -exchange      EXHF   =         0.00000000
  -V(xc)+E(xc)   XCENC  =       214.07106188
  PAW double counting   =      4772.42754517    -4783.64281194
  entropy T*S    EENTRO =         0.00000000
  eigenvalues    EBANDS =      -755.83598235
  atomic energy  EATOM  =      2425.98333211
  Solvation  Ediel_sol  =         0.00000000
  ---------------------------------------------------
  free energy    TOTEN  =      -129.37834241 eV

  energy without entropy =     -129.37834241  energy(sigma->0) =     -129.37834241


--------------------------------------------------------------------------------------------------------




----------------------------------------- Iteration    1(  17)  ---------------------------------------


    POTLOK:  cpu time   22.6586: real time   22.6406
    SETDIJ:  cpu time    0.0300: real time    0.0294
     EDDAV:  cpu time  247.0984: real time  246.8965
       DOS:  cpu time    0.0000: real time    0.0006
    CHARGE:  cpu time   20.4929: real time   20.4768
    MIXING:  cpu time    1.4898: real time    1.4880
    --------------------------------------------
      LOOP:  cpu time  291.7716: real time  291.5361

 eigenvalue-minimisations  :   336
 total energy-change (2. order) :-0.2705125E-02  (-0.1340717E-04)
 number of electron      57.9999956 magnetization 
 augmentation part        2.5803724 magnetization 

 Broyden mixing:
  rms(total) = 0.91780E-03    rms(broyden)= 0.91741E-03
  rms(prec ) = 0.13419E-02
  weight for this iteration     100.00

 eigenvalues of (default mixing * dielectric matrix)
  average eigenvalue GAMMA=   2.0218
  7.0716  3.6107  2.2848  2.2848  1.4901  1.4901  1.0472  1.0472  1.0378  1.0378
  0.9299  0.9299

 Free energy of the ion-electron system (eV)
  ---------------------------------------------------
  alpha Z        PSCENC =         0.51957394
  Ewald energy   TEWEN  =      6084.17347767
  -Hartree energ DENC   =     -8087.39371064
  -exchange      EXHF   =         0.00000000
  -V(xc)+E(xc)   XCENC  =       214.06683871
  PAW double counting   =      4772.56378832    -4783.77888251
  entropy T*S    EENTRO =         0.00000000
  eigenvalues    EBANDS =      -755.51546514
  atomic energy  EATOM  =      2425.98333211
  Solvation  Ediel_sol  =         0.00000000
  ---------------------------------------------------
  free energy    TOTEN  =      -129.38104754 eV

  energy without entropy =     -129.38104754  energy(sigma->0) =     -129.38104754


--------------------------------------------------------------------------------------------------------




----------------------------------------- Iteration    1(  18)  ---------------------------------------


    POTLOK:  cpu time   21.5537: real time   21.5366
    SETDIJ:  cpu time    0.0300: real time    0.0296
     EDDAV:  cpu time  226.6755: real time  226.4916
       DOS:  cpu time    0.0000: real time    0.0005
    CHARGE:  cpu time   18.6202: real time   18.6051
    MIXING:  cpu time    1.5708: real time    1.5698
    --------------------------------------------
      LOOP:  cpu time  268.4522: real time  268.2369

 eigenvalue-minimisations  :   266
 total energy-change (2. order) :-0.1827164E-02  (-0.1182938E-04)
 number of electron      57.9999956 magnetization 
 augmentation part        2.5803367 magnetization 

 Broyden mixing:
  rms(total) = 0.55711E-03    rms(broyden)= 0.55692E-03
  rms(prec ) = 0.80144E-03
  weight for this iteration     100.00

 eigenvalues of (default mixing * dielectric matrix)
  average eigenvalue GAMMA=   2.0813
  7.5528  4.1628  2.5165  2.2470  1.8256  1.3713  1.3713  1.0497  1.0497  0.9930
  0.9930  0.9620  0.9620

 Free energy of the ion-electron system (eV)
  ---------------------------------------------------
  alpha Z        PSCENC =         0.51957394
  Ewald energy   TEWEN  =      6084.17347767
  -Hartree energ DENC   =     -8087.56285482
  -exchange      EXHF   =         0.00000000
  -V(xc)+E(xc)   XCENC  =       214.06355127
  PAW double counting   =      4772.71291604    -4783.92792872
  entropy T*S    EENTRO =         0.00000000
  eigenvalues    EBANDS =      -755.34494220
  atomic energy  EATOM  =      2425.98333211
  Solvation  Ediel_sol  =         0.00000000
  ---------------------------------------------------
  free energy    TOTEN  =      -129.38287470 eV

  energy without entropy =     -129.38287470  energy(sigma->0) =     -129.38287470


--------------------------------------------------------------------------------------------------------




----------------------------------------- Iteration    1(  19)  ---------------------------------------


    POTLOK:  cpu time   22.9585: real time   22.9396
    SETDIJ:  cpu time    0.0290: real time    0.0292
     EDDAV:  cpu time  252.6556: real time  252.4498
       DOS:  cpu time    0.0010: real time    0.0005
    CHARGE:  cpu time   18.3092: real time   18.2957
    MIXING:  cpu time    1.4948: real time    1.4923
    --------------------------------------------
      LOOP:  cpu time  295.4501: real time  295.2115

 eigenvalue-minimisations  :   328
 total energy-change (2. order) :-0.1025366E-02  (-0.6322128E-05)
 number of electron      57.9999956 magnetization 
 augmentation part        2.5802763 magnetization 

 Broyden mixing:
  rms(total) = 0.33884E-03    rms(broyden)= 0.33854E-03
  rms(prec ) = 0.47094E-03
  weight for this iteration     100.00

 eigenvalues of (default mixing * dielectric matrix)
  average eigenvalue GAMMA=   2.1289
  8.0859  4.7201  2.5972  2.5972  1.7152  1.5171  1.5171  1.0603  1.0603  0.9289
  1.0211  1.0211  0.9813  0.9813

 Free energy of the ion-electron system (eV)
  ---------------------------------------------------
  alpha Z        PSCENC =         0.51957394
  Ewald energy   TEWEN  =      6084.17347767
  -Hartree energ DENC   =     -8087.66154910
  -exchange      EXHF   =         0.00000000
  -V(xc)+E(xc)   XCENC  =       214.06332338
  PAW double counting   =      4773.07466355    -4784.28988400
  entropy T*S    EENTRO =         0.00000000
  eigenvalues    EBANDS =      -755.24683762
  atomic energy  EATOM  =      2425.98333211
  Solvation  Ediel_sol  =         0.00000000
  ---------------------------------------------------
  free energy    TOTEN  =      -129.38390007 eV

  energy without entropy =     -129.38390007  energy(sigma->0) =     -129.38390007


--------------------------------------------------------------------------------------------------------




----------------------------------------- Iteration    1(  20)  ---------------------------------------


    POTLOK:  cpu time   20.0040: real time   19.9880
    SETDIJ:  cpu time    0.0280: real time    0.0287
     EDDAV:  cpu time  260.8863: real time  260.6731
       DOS:  cpu time    0.0010: real time    0.0005
    CHARGE:  cpu time   18.7302: real time   18.7157
    MIXING:  cpu time    1.9077: real time    1.9061
    --------------------------------------------
      LOOP:  cpu time  301.5592: real time  301.3157

 eigenvalue-minimisations  :   356
 total energy-change (2. order) :-0.4142283E-03  (-0.1770929E-05)
 number of electron      57.9999956 magnetization 
 augmentation part        2.5802840 magnetization 

 Broyden mixing:
  rms(total) = 0.19099E-03    rms(broyden)= 0.19093E-03
  rms(prec ) = 0.27774E-03
  weight for this iteration     100.00

 eigenvalues of (default mixing * dielectric matrix)
  average eigenvalue GAMMA=   2.1488
  8.3064  5.2046  2.8126  2.5092  1.8313  1.8313  1.3054  1.3054  1.0546  1.0546
  1.0058  1.0017  1.0017  1.0037  1.0037

 Free energy of the ion-electron system (eV)
  ---------------------------------------------------
  alpha Z        PSCENC =         0.51957394
  Ewald energy   TEWEN  =      6084.17347767
  -Hartree energ DENC   =     -8087.67598191
  -exchange      EXHF   =         0.00000000
  -V(xc)+E(xc)   XCENC  =       214.06190766
  PAW double counting   =      4772.75356037    -4783.96872823
  entropy T*S    EENTRO =         0.00000000
  eigenvalues    EBANDS =      -755.23145591
  atomic energy  EATOM  =      2425.98333211
  Solvation  Ediel_sol  =         0.00000000
  ---------------------------------------------------
  free energy    TOTEN  =      -129.38431430 eV

  energy without entropy =     -129.38431430  energy(sigma->0) =     -129.38431430


--------------------------------------------------------------------------------------------------------




----------------------------------------- Iteration    1(  21)  ---------------------------------------


    POTLOK:  cpu time   21.1498: real time   21.1325
    SETDIJ:  cpu time    0.0290: real time    0.0292
     EDDAV:  cpu time  225.2598: real time  225.0765
       DOS:  cpu time    0.0000: real time    0.0006
    CHARGE:  cpu time   18.8981: real time   18.8826
    MIXING:  cpu time    1.7077: real time    1.7065
    --------------------------------------------
      LOOP:  cpu time  267.0464: real time  266.8325

 eigenvalue-minimisations  :   280
 total energy-change (2. order) :-0.2310809E-03  (-0.8295609E-06)
 number of electron      57.9999956 magnetization 
 augmentation part        2.5802765 magnetization 

 Broyden mixing:
  rms(total) = 0.12091E-03    rms(broyden)= 0.12085E-03
  rms(prec ) = 0.17171E-03
  weight for this iteration     100.00

 eigenvalues of (default mixing * dielectric matrix)
  average eigenvalue GAMMA=   2.2262
  8.5122  5.8202  3.4455  2.6357  2.3595  1.6228  1.6228  1.4909  1.0757  1.0757
  1.0428  1.0428  0.9775  0.9775  0.9589  0.9589

 Free energy of the ion-electron system (eV)
  ---------------------------------------------------
  alpha Z        PSCENC =         0.51957394
  Ewald energy   TEWEN  =      6084.17347767
  -Hartree energ DENC   =     -8087.68280537
  -exchange      EXHF   =         0.00000000
  -V(xc)+E(xc)   XCENC  =       214.06150719
  PAW double counting   =      4772.80228754    -4784.01745201
  entropy T*S    EENTRO =         0.00000000
  eigenvalues    EBANDS =      -755.22446644
  atomic energy  EATOM  =      2425.98333211
  Solvation  Ediel_sol  =         0.00000000
  ---------------------------------------------------
  free energy    TOTEN  =      -129.38454538 eV

  energy without entropy =     -129.38454538  energy(sigma->0) =     -129.38454538


--------------------------------------------------------------------------------------------------------




----------------------------------------- Iteration    1(  22)  ---------------------------------------


    POTLOK:  cpu time   22.9525: real time   22.9338
    SETDIJ:  cpu time    0.0290: real time    0.0293
     EDDAV:  cpu time  235.2322: real time  235.0387
       DOS:  cpu time    0.0000: real time    0.0005
    CHARGE:  cpu time   17.0384: real time   17.0240
    MIXING:  cpu time    1.6488: real time    1.6476
    --------------------------------------------
      LOOP:  cpu time  276.9019: real time  276.6776

 eigenvalue-minimisations  :   316
 total energy-change (2. order) :-0.1460000E-03  (-0.4083908E-06)
 number of electron      57.9999956 magnetization 
 augmentation part        2.5802836 magnetization 

 Broyden mixing:
  rms(total) = 0.70681E-04    rms(broyden)= 0.70641E-04
  rms(prec ) = 0.93746E-04
  weight for this iteration     100.00

 eigenvalues of (default mixing * dielectric matrix)
  average eigenvalue GAMMA=   2.2125
  8.5802  6.1574  3.6386  2.4789  2.4789  1.7088  1.7088  1.3686  1.3686  1.0616
  1.0616  1.0644  1.0644  0.9699  0.9476  0.9770  0.9770

 Free energy of the ion-electron system (eV)
  ---------------------------------------------------
  alpha Z        PSCENC =         0.51957394
  Ewald energy   TEWEN  =      6084.17347767
  -Hartree energ DENC   =     -8087.69738564
  -exchange      EXHF   =         0.00000000
  -V(xc)+E(xc)   XCENC  =       214.06122586
  PAW double counting   =      4772.70487626    -4783.92004215
  entropy T*S    EENTRO =         0.00000000
  eigenvalues    EBANDS =      -755.20974943
  atomic energy  EATOM  =      2425.98333211
  Solvation  Ediel_sol  =         0.00000000
  ---------------------------------------------------
  free energy    TOTEN  =      -129.38469138 eV

  energy without entropy =     -129.38469138  energy(sigma->0) =     -129.38469138


--------------------------------------------------------------------------------------------------------




----------------------------------------- Iteration    1(  23)  ---------------------------------------


    POTLOK:  cpu time   19.1251: real time   19.1103
    SETDIJ:  cpu time    0.0280: real time    0.0286
     EDDAV:  cpu time  243.2060: real time  243.0076
       DOS:  cpu time    0.0000: real time    0.0005
    --------------------------------------------
      LOOP:  cpu time  262.3621: real time  262.1505

 eigenvalue-minimisations  :   320
 total energy-change (2. order) :-0.3787004E-04  (-0.9327465E-07)
 number of electron      57.9999956 magnetization 
 augmentation part        2.5802836 magnetization 

 Free energy of the ion-electron system (eV)
  ---------------------------------------------------
  alpha Z        PSCENC =         0.51957394
  Ewald energy   TEWEN  =      6084.17347767
  -Hartree energ DENC   =     -8087.70435181
  -exchange      EXHF   =         0.00000000
  -V(xc)+E(xc)   XCENC  =       214.06123215
  PAW double counting   =      4772.74341167    -4783.95857684
  entropy T*S    EENTRO =         0.00000000
  eigenvalues    EBANDS =      -755.20282814
  atomic energy  EATOM  =      2425.98333211
  Solvation  Ediel_sol  =         0.00000000
  ---------------------------------------------------
  free energy    TOTEN  =      -129.38472925 eV

  energy without entropy =     -129.38472925  energy(sigma->0) =     -129.38472925


--------------------------------------------------------------------------------------------------------




 average (electrostatic) potential at core
  the test charge radii are     0.5201  0.6991  0.7089  0.7215
  (the norm of the test charge is              1.0000)
       1 -42.3566       2 -42.5972       3 -42.5620       4 -44.7981       5 -42.3215
       6 -41.9020       7 -41.8692       8 -42.0105       9 -43.2529      10 -41.6892
      11 -41.6879      12 -42.0238      13 -59.1145      14 -61.5431      15 -60.0208
      16 -58.6535      17 -60.7564      18 -59.1059      19 -74.7965      20 -73.8786
      21 -80.0368      22 -79.2015
 
 
 
 E-fermi :  -4.4964     XC(G=0):  -0.1532     alpha+bet : -0.0465


 k-point     1 :       0.2500    0.2500    0.2500
  band No.  band energies     occupation 
      1     -26.2467      2.00000
      2     -25.4716      2.00000
      3     -23.4821      2.00000
      4     -22.6070      2.00000
      5     -19.6037      2.00000
      6     -18.2845      2.00000
      7     -17.3612      2.00000
      8     -16.1398      2.00000
      9     -14.8213      2.00000
     10     -13.9047      2.00000
     11     -13.2282      2.00000
     12     -12.5061      2.00000
     13     -11.5135      2.00000
     14     -11.4301      2.00000
     15     -10.9169      2.00000
     16     -10.7496      2.00000
     17     -10.4040      2.00000
     18     -10.0913      2.00000
     19     -10.0233      2.00000
     20      -9.9643      2.00000
     21      -9.3879      2.00000
     22      -9.1474      2.00000
     23      -8.9701      2.00000
     24      -8.7284      2.00000
     25      -8.3612      2.00000
     26      -6.7518      2.00000
     27      -6.2925      2.00000
     28      -5.7906      2.00000
     29      -5.4217      2.00000
     30      -1.1631      0.00000
     31      -1.0352      0.00000
     32      -0.4581      0.00000
     33      -0.2806      0.00000
     34      -0.2019      0.00000
     35      -0.0599      0.00000
     36       0.0255      0.00000
     37       0.0787      0.00000
     38       0.1066      0.00000
     39       0.1178      0.00000
     40       0.1531      0.00000
     41       0.1760      0.00000

 k-point     2 :      -0.2500    0.2500    0.2500
  band No.  band energies     occupation 
      1     -26.2467      2.00000
      2     -25.4716      2.00000
      3     -23.4821      2.00000
      4     -22.6070      2.00000
      5     -19.6037      2.00000
      6     -18.2845      2.00000
      7     -17.3612      2.00000
      8     -16.1398      2.00000
      9     -14.8213      2.00000
     10     -13.9047      2.00000
     11     -13.2282      2.00000
     12     -12.5061      2.00000
     13     -11.5135      2.00000
     14     -11.4301      2.00000
     15     -10.9169      2.00000
     16     -10.7496      2.00000
     17     -10.4040      2.00000
     18     -10.0913      2.00000
     19     -10.0233      2.00000
     20      -9.9643      2.00000
     21      -9.3879      2.00000
     22      -9.1474      2.00000
     23      -8.9701      2.00000
     24      -8.7284      2.00000
     25      -8.3612      2.00000
     26      -6.7518      2.00000
     27      -6.2925      2.00000
     28      -5.7906      2.00000
     29      -5.4217      2.00000
     30      -1.1631      0.00000
     31      -1.0352      0.00000
     32      -0.4581      0.00000
     33      -0.2806      0.00000
     34      -0.2019      0.00000
     35      -0.0597      0.00000
     36       0.0241      0.00000
     37       0.0773      0.00000
     38       0.1090      0.00000
     39       0.1180      0.00000
     40       0.1623      0.00000
     41       0.1746      0.00000

 k-point     3 :       0.2500   -0.2500    0.2500
  band No.  band energies     occupation 
      1     -26.2467      2.00000
      2     -25.4716      2.00000
      3     -23.4821      2.00000
      4     -22.6070      2.00000
      5     -19.6037      2.00000
      6     -18.2845      2.00000
      7     -17.3612      2.00000
      8     -16.1398      2.00000
      9     -14.8213      2.00000
[...]

 Free energy of the ion-electron system (eV)
  ---------------------------------------------------
  alpha Z        PSCENC =         0.51957394
  Ewald energy   TEWEN  =      6115.49465513
  -Hartree energ DENC   =     -8118.93403827
  -exchange      EXHF   =         0.00000000
  -V(xc)+E(xc)   XCENC  =       214.08505812
  PAW double counting   =      4776.65254683    -4787.86954706
  entropy T*S    EENTRO =         0.00000000
  eigenvalues    EBANDS =      -755.36786831
  atomic energy  EATOM  =      2425.98333211
  Solvation  Ediel_sol  =         0.00000000
  ---------------------------------------------------
  free energy    TOTEN  =      -129.43628751 eV

  energy without entropy =     -129.43628751  energy(sigma->0) =     -129.43628751


--------------------------------------------------------------------------------------------------------




 average (electrostatic) potential at core
  the test charge radii are     0.5201  0.6991  0.7089  0.7215
  (the norm of the test charge is              1.0000)
       1 -42.3600       2 -42.5652       3 -42.6014       4 -44.8100       5 -42.3975
       6 -41.8827       7 -41.7838       8 -41.9354       9 -43.3941      10 -41.7399
      11 -41.7131      12 -42.0441      13 -59.1182      14 -61.5110      15 -60.0067
      16 -58.6012      17 -60.7544      18 -59.1296      19 -74.7925      20 -73.9265
      21 -79.9854      22 -79.2483
 
 
 
 E-fermi :  -4.4949     XC(G=0):  -0.1345     alpha+bet : -0.0465


 k-point     1 :       0.2500    0.2500    0.2500
  band No.  band energies     occupation 
      1     -26.2215      2.00000
      2     -25.5085      2.00000
      3     -23.4602      2.00000
      4     -22.6467      2.00000
      5     -19.5941      2.00000
      6     -18.2790      2.00000
      7     -17.3609      2.00000
      8     -16.1496      2.00000
      9     -14.7377      2.00000
     10     -13.9575      2.00000
     11     -13.2872      2.00000
     12     -12.5419      2.00000
     13     -11.5555      2.00000
     14     -11.3551      2.00000
     15     -10.8950      2.00000
     16     -10.7761      2.00000
     17     -10.3777      2.00000
     18     -10.0964      2.00000
     19     -10.0069      2.00000
     20      -9.9201      2.00000
     21      -9.3815      2.00000
     22      -9.1771      2.00000
     23      -8.9676      2.00000
     24      -8.7284      2.00000
     25      -8.3993      2.00000
     26      -6.7956      2.00000
     27      -6.2471      2.00000
     28      -5.8323      2.00000
     29      -5.4276      2.00000
     30      -1.1758      0.00000
     31      -1.0108      0.00000
     32      -0.4395      0.00000
     33      -0.2941      0.00000
     34      -0.1977      0.00000
     35      -0.0633      0.00000
     36       0.0470      0.00000
     37       0.1020      0.00000
     38       0.1262      0.00000
     39       0.1401      0.00000
     40       0.1746      0.00000
     41       0.1963      0.00000

 k-point     2 :      -0.2500    0.2500    0.2500
  band No.  band energies     occupation 
      1     -26.2215      2.00000
      2     -25.5085      2.00000
      3     -23.4602      2.00000
      4     -22.6467      2.00000
      5     -19.5941      2.00000
      6     -18.2790      2.00000
      7     -17.3609      2.00000
      8     -16.1496      2.00000
      9     -14.7377      2.00000
     10     -13.9575      2.00000
     11     -13.2872      2.00000
     12     -12.5419      2.00000
     13     -11.5555      2.00000
     14     -11.3551      2.00000
     15     -10.8950      2.00000
     16     -10.7761      2.00000
     17     -10.3777      2.00000
     18     -10.0964      2.00000
     19     -10.0069      2.00000
     20      -9.9201      2.00000
     21      -9.3815      2.00000
     22      -9.1771      2.00000
     23      -8.9676      2.00000
     24      -8.7284      2.00000
     25      -8.3993      2.00000
     26      -6.7955      2.00000
     27      -6.2471      2.00000
     28      -5.8323      2.00000
     29      -5.4276      2.00000
     30      -1.1758      0.00000
     31      -1.0108      0.00000
     32      -0.4395      0.00000
     33      -0.2941      0.00000
     34      -0.1976      0.00000
     35      -0.0631      0.00000
     36       0.0455      0.00000
     37       0.1011      0.00000
     38       0.1301      0.00000
     39       0.1394      0.00000
     40       0.1829      0.00000
     41       0.1952      0.00000

 k-point     3 :       0.2500   -0.2500    0.2500
  band No.  band energies     occupation 
      1     -26.2215      2.00000
      2     -25.5085      2.00000
      3     -23.4602      2.00000
      4     -22.6467      2.00000
      5     -19.5941      2.00000
      6     -18.2790      2.00000
      7     -17.3609      2.00000
      8     -16.1496      2.00000
      9     -14.7377      2.00000
     10     -13.9575      2.00000
     11     -13.2872      2.00000
     12     -12.5419      2.00000
     13     -11.5555      2.00000
     14     -11.3551      2.00000
     15     -10.8950      2.00000
     16     -10.7761      2.00000
     17     -10.3777      2.00000
     18     -10.0964      2.00000
     19     -10.0069      2.00000
     20      -9.9201      2.00000
     21      -9.3815      2.00000
     22      -9.1771      2.00000
     23      -8.9676      2.00000
     24      -8.7284      2.00000
     25      -8.3993      2.00000
     26      -6.7956      2.00000
     27      -6.2471      2.00000
     28      -5.8323      2.00000
     29      -5.4275      2.00000
     30      -1.1758      0.00000
     31      -1.0108      0.00000
     32      -0.4394      0.00000
     33      -0.2941      0.00000
     34      -0.1976      0.00000
     35      -0.0623      0.00000
     36       0.0387      0.00000
     37       0.1126      0.00000
     38       0.1246      0.00000
     39       0.1431      0.00000
     40       0.1879      0.00000
     41       0.1940      0.00000

 k-point     4 :      -0.2500   -0.2500    0.2500
  band No.  band energies     occupation 
      1     -26.2215      2.00000
      2     -25.5085      2.00000
      3     -23.4602      2.00000
      4     -22.6467      2.00000
      5     -19.5941      2.00000
      6     -18.2790      2.00000
      7     -17.3609      2.00000
      8     -16.1496      2.00000
      9     -14.7377      2.00000
     10     -13.9575      2.00000
     11     -13.2872      2.00000
     12     -12.5419      2.00000
     13     -11.5555      2.00000
     14     -11.3551      2.00000
     15     -10.8950      2.00000
     16     -10.7761      2.00000
     17     -10.3777      2.00000
     18     -10.0964      2.00000
     19     -10.0069      2.00000
     20      -9.9201      2.00000
     21      -9.3815      2.00000
     22      -9.1771      2.00000
     23      -8.9676      2.00000
     24      -8.7284      2.00000
     25      -8.3993      2.00000
     26      -6.7956      2.00000
     27      -6.2471      2.00000
     28      -5.8323      2.00000
     29      -5.4276      2.00000
     30      -1.1758      0.00000
     31      -1.0108      0.00000
     32      -0.4395      0.00000
     33      -0.2941      0.00000
     34      -0.1977      0.00000
     35      -0.0624      0.00000
     36       0.0389      0.00000
     37       0.1226      0.00000
     38       0.1283      0.00000
     39       0.1301      0.00000
     40       0.1758      0.00000
     41       0.1893      0.00000


--------------------------------------------------------------------------------------------------------


 soft charge-density along one line, spin component           1
         0         1         2         3         4         5         6         7         8         9
 total charge-density along one line
 
 pseudopotential strength for first ion, spin component:           1
 -2.353  -4.056   0.002   0.000  -0.001
 -4.056  -6.907   0.005  -0.001  -0.002
  0.002   0.005  -0.332  -0.001  -0.002
  0.000  -0.001  -0.001  -0.336   0.000
 -0.001  -0.002  -0.002   0.000  -0.336
 total augmentation occupancy for first ion, spin component:           1
  3.525  -0.635  -0.409   0.060   0.155
 -0.635   0.129   0.075  -0.011  -0.028
 -0.409   0.075   0.049  -0.006  -0.016
  0.060  -0.011  -0.006   0.009   0.003
  0.155  -0.028  -0.016   0.003   0.014


------------------------ aborting loop because EDIFF is reached ----------------------------------------


    CHARGE:  cpu time   16.9444: real time   16.9297
    FORLOC:  cpu time    5.8241: real time    5.8184
    FORNL :  cpu time   61.8226: real time   61.7720
    STRESS:  cpu time  188.5413: real time  188.3854
    FORCOR:  cpu time   24.1073: real time   24.0861
    FORHAR:  cpu time   10.6974: real time   10.6895
    MIXING:  cpu time    0.7959: real time    0.7951
    OFIELD:  cpu time    0.0000: real time    0.0000

  FORCE on cell =-STRESS in cart. coord.  units (eV):
  Direction    XX          YY          ZZ          XY          YZ          ZX
  --------------------------------------------------------------------------------------
  Alpha Z     0.51957     0.51957     0.51957
  Ewald    3223.01959  2057.81033   834.66337    83.21209  -249.18875   447.76752
  Hartree  3691.93872  2676.34756  1750.64825    82.96210   -70.84943   364.93359
  E(xc)    -229.57453  -230.17535  -231.34087    -0.11276    -1.09871     0.47139
  Local   -7513.32260 -5338.23614 -3206.19519  -170.88536   285.99168  -803.32429
  n-local  -133.31243  -133.60189  -132.80501     0.61393     2.45490    -0.99410
  augment    14.49711    14.81059    14.11648     0.01708     0.71536    -0.08054
  Kinetic   942.49066   948.84560   966.70909     4.14940    31.71805    -8.66503
  Fock        0.00000     0.00000     0.00000     0.00000     0.00000     0.00000
  -------------------------------------------------------------------------------------
  Total      -3.74392    -3.67974    -3.68431    -0.04352    -0.25689     0.10855
  in kB      -0.22216    -0.21836    -0.21863    -0.00258    -0.01524     0.00644
  external pressure =       -0.22 kB  Pullay stress =        0.00 kB


 VOLUME and BASIS-vectors are now :
 -----------------------------------------------------------------------------
  energy-cutoff  :      400.00
  volume of cell :    27000.00
      direct lattice vectors                 reciprocal lattice vectors
    30.000000000  0.000000000  0.000000000     0.033333333  0.000000000  0.000000000
     0.000000000 30.000000000  0.000000000     0.000000000  0.033333333  0.000000000
     0.000000000  0.000000000 30.000000000     0.000000000  0.000000000  0.033333333

  length of vectors
    30.000000000 30.000000000 30.000000000     0.033333333  0.033333333  0.033333333


 FORCES acting on ions
    electron-ion (+dipol)            ewald-force                    non-local-force                 convergence-correction
 -----------------------------------------------------------------------------------------------
   0.592E+02 -.631E+02 0.200E+01   -.612E+02 0.683E+02 -.277E+01   0.199E+01 -.523E+01 0.767E+00   -.279E-05 0.655E-05 -.170E-05
   0.677E+02 0.381E+02 0.374E+02   -.705E+02 -.414E+02 -.409E+02   0.274E+01 0.329E+01 0.342E+01   -.472E-05 0.509E-06 -.745E-06
   0.501E+02 0.148E+02 -.669E+02   -.512E+02 -.164E+02 0.720E+02   0.113E+01 0.157E+01 -.514E+01   -.394E-05 0.539E-05 0.346E-05
   0.553E+02 0.696E+02 -.760E+02   -.589E+02 -.738E+02 0.809E+02   0.362E+01 0.424E+01 -.494E+01   -.371E-07 -.241E-05 0.418E-05
   -.125E+02 0.869E+02 -.541E+02   0.138E+02 -.913E+02 0.577E+02   -.121E+01 0.436E+01 -.356E+01   0.166E-04 -.157E-05 -.457E-05
   -.678E+02 0.470E+02 0.376E+02   0.730E+02 -.487E+02 -.383E+02   -.527E+01 0.165E+01 0.624E+00   0.132E-04 -.535E-06 -.556E-06
   -.132E+01 -.161E+02 0.837E+02   0.261E+00 0.202E+02 -.875E+02   0.105E+01 -.407E+01 0.374E+01   0.120E-04 -.366E-05 -.260E-05
   0.297E+02 0.771E+02 0.395E+02   -.329E+02 -.814E+02 -.406E+02   0.324E+01 0.426E+01 0.116E+01   0.157E-04 0.335E-05 -.661E-05
   0.349E+02 -.589E+02 0.425E+02   -.408E+02 0.603E+02 -.463E+02   0.589E+01 -.146E+01 0.384E+01   0.100E-04 -.155E-05 0.334E-05
   -.335E+02 -.383E+02 -.717E+02   0.346E+02 0.387E+02 0.772E+02   -.114E+01 -.354E+00 -.547E+01   0.245E-05 -.592E-05 0.879E-05
   -.805E+02 -.188E+02 0.299E+02   0.853E+02 0.176E+02 -.324E+02   -.484E+01 0.121E+01 0.251E+01   -.207E-05 -.118E-04 0.764E-05
   0.345E+00 -.856E+02 0.173E+02   -.219E+01 0.906E+02 -.191E+02   0.184E+01 -.501E+01 0.183E+01   0.150E-05 -.123E-04 0.775E-05
   0.225E+03 -.141E+02 -.363E+02   -.226E+03 0.150E+02 0.364E+02   0.727E+00 -.907E+00 -.789E-01   -.110E-04 0.212E-04 0.215E-06
   0.185E+03 -.179E+00 -.268E+02   -.190E+03 0.726E+00 0.277E+02   0.489E+01 -.552E+00 -.847E+00   0.131E-04 0.436E-04 -.248E-04
   -.303E+02 0.163E+03 -.342E+02   0.356E+02 -.164E+03 0.335E+02   -.536E+01 0.155E+01 0.708E+00   0.678E-04 0.133E-04 -.352E-04
   -.475E+02 0.153E+03 0.179E+03   0.476E+02 -.153E+03 -.180E+03   -.138E+00 0.530E-01 0.120E+01   0.605E-04 -.248E-05 -.247E-04
   -.259E+02 0.326E+02 -.310E+02   0.230E+02 -.352E+02 0.301E+02   0.290E+01 0.264E+01 0.883E+00   0.140E-04 0.101E-04 -.268E-04
   -.142E+03 -.199E+03 -.264E+02   0.146E+03 0.202E+03 0.276E+02   -.403E+01 -.327E+01 -.118E+01   -.572E-05 -.463E-04 0.160E-04
   0.119E+03 0.154E+03 -.148E+03   -.116E+03 -.153E+03 0.149E+03   -.324E+01 -.753E+00 -.621E+00   0.622E-04 0.361E-04 -.170E-04
   -.231E+02 -.200E+03 0.238E+02   0.199E+02 0.203E+03 -.237E+02   0.318E+01 -.321E+01 -.121E+00   0.376E-04 -.289E-05 -.370E-04
   0.658E+02 -.281E+03 0.291E+03   -.492E+02 0.316E+03 -.325E+03   -.166E+02 -.342E+02 0.349E+02   0.297E-04 0.398E-04 -.632E-04
   -.376E+03 0.156E+03 -.221E+03   0.419E+03 -.174E+03 0.245E+03   -.437E+02 0.176E+02 -.243E+02   0.407E-04 -.394E-04 -.636E-05
 -----------------------------------------------------------------------------------------------
   0.523E+02 0.166E+02 -.926E+01   0.000E+00 0.568E-13 0.000E+00   -.523E+02 -.166E+02 0.925E+01   0.367E-03 0.490E-04 -.200E-03
 
 
 POSITION                                       TOTAL-FORCE (eV/Angst)
 -----------------------------------------------------------------------------------
     11.41588     16.17375     15.01653         0.008301      0.004261      0.005901
     11.26073     14.48834     14.47346         0.000139      0.009274     -0.006867
     11.59726     14.82905     16.18866         0.000364     -0.005871     -0.003860
     13.51329     13.59886     16.11494         0.005580      0.009095      0.015106
     15.60016     12.94904     15.86483         0.001117     -0.006588     -0.002101
     16.66890     12.97437     13.62815        -0.003366      0.005023     -0.007989
     15.42111     14.09775     13.01650        -0.006214      0.009173      0.003570
     14.96918     12.44563     13.52391        -0.004510      0.005928     -0.004133
     15.43811     16.31617     14.68366         0.006446     -0.008234     -0.012793
     17.49550     17.19668     16.57146        -0.004855     -0.003027      0.000871
     18.23221     16.88587     14.98691         0.000701      0.005585      0.000416
     16.90956     18.08665     15.13226        -0.006313     -0.001630      0.001613
     11.80200     15.15808     15.15958         0.003082      0.001104     -0.001097
     13.27842     15.13791     14.81536         0.002764     -0.004548     -0.002467
     15.40745     13.78746     15.18131         0.001060     -0.003144      0.001805
     15.62562     13.30055     13.74270        -0.002975      0.004353     -0.001390
     16.49615     14.81479     15.57975        -0.005891      0.000384      0.002812
     17.28344     17.12111     15.49428        -0.001943      0.000302     -0.001017
     14.01031     14.17758     15.44453         0.002469     -0.001034      0.003755
     16.28236     16.10320     15.23296         0.004177     -0.006018     -0.004892
     13.76882     15.94199     14.00144         0.002882     -0.013167     -0.010202
     17.52350     14.41515     16.14678        -0.003012     -0.001220      0.022959
 -----------------------------------------------------------------------------------
    total drift:                                0.009712     -0.007306     -0.015916


--------------------------------------------------------------------------------------------------------



  FREE ENERGIE OF THE ION-ELECTRON SYSTEM (eV)
  ---------------------------------------------------
  free  energy   TOTEN  =      -129.43628751 eV

  energy  without entropy=     -129.43628751  energy(sigma->0) =     -129.43628751
 
 d Force = 0.6872757E-05[ 0.680E-05, 0.694E-05]  d Energy = 0.6904080E-05-0.313E-07
 d Force =-0.1766050E-01[-0.177E-01,-0.177E-01]  d Ewald  =-0.1766050E-01 0.132E-09


--------------------------------------------------------------------------------------------------------


    POTLOK:  cpu time   22.0536: real time   22.0358


--------------------------------------------------------------------------------------------------------


 NEB: the previous image is higher in energy: T
 NEB: the next image is higher in energy    : T
 NEB: image is at an extrema
 NEB: diff energy (min, max):     0.000012    0.029323

 NEB: Tangent
 ----------------------------------------------
      0.07502      0.06102     -0.04826
     -0.02029      0.05774     -0.02395
      0.04481      0.06640     -0.03706
      0.00987     -0.01760     -0.05727
     -0.02989     -0.15172     -0.21520
      0.01900      0.12480     -0.21453
      0.03661      0.21555     -0.10531
      0.01710      0.13783     -0.31495
      0.02889     -0.02576      0.07643
     -0.16046     -0.09513      0.33760
      0.01734     -0.00371      0.38472
     -0.02092     -0.03181      0.31058
      0.03172      0.04321     -0.04778
      0.02462     -0.02586     -0.08339
     -0.00582     -0.05789     -0.12332
      0.01851      0.11681     -0.19364
     -0.02166     -0.08733      0.03778
     -0.04587     -0.04563      0.30109
     -0.00072     -0.05948     -0.10460
     -0.01421     -0.05236      0.13670
      0.05023     -0.04891     -0.09235
     -0.05395     -0.12011      0.07684

 NEB: forces: par spring, perp REAL, dneb     0.049432    0.047706    0.000000
 NEB: distance to prev, next image, angle between     1.278721    1.268835  156.588485
 NEB: projections on to tangent (spring, REAL)    -0.049432    0.013116

 stress matrix after NEB project (eV)
     -3.74392     -0.04352      0.10855
     -0.04352     -3.67974     -0.25689
      0.10855     -0.25689     -3.68431
  FORCES: max atom, RMS     0.024355    0.014646
  FORCE total and by dimension    0.068698    0.023647
  Stress total and by dimension    6.425796    3.743920
 OPT: skip step - force has converged


--------------------------------------------------------------------------------------------------------


  
 reached required accuracy - stopping structural energy minimisation
     LOOP+:  cpu time 1818.7605: real time 1817.2966
    4ORBIT:  cpu time    0.0000: real time    0.0000

 total amount of memory used by VASP on root node  4333706. kBytes
========================================================================

   base      :      30000. kBytes
   nonlr-proj:       2401. kBytes
   fftplans  :     924480. kBytes
   grid      :    2089440. kBytes
   one-center:         67. kBytes
   wavefun   :    1287318. kBytes
 
  
  
 General timing and accounting informations for this job:
 ========================================================
  
                  Total CPU time used (sec):   226712.781
                            User time (sec):   225260.591
                          System time (sec):     1452.183
                         Elapsed time (sec):   226579.115
  
                   Maximum memory used (kb):     5901412.
                   Average memory used (kb):           0.
  
                          Minor page faults:    319998691
                          Major page faults:            8
                 Voluntary context switches:        13421
