 vasp.5.4.1 24Jun15 (build Jan 13 2020 12:58:22) complex                        
  
 POSCAR found type information on POSCAR  H  C  N  O 
 11/POSCAR found :  4 types and      22 ions
 scaLAPACK will be used
 LDA part: xc-table for Pade appr. of Perdew
 POSCAR found type information on POSCAR  H  C  N  O 
 00/POSCAR found :  4 types and      22 ions
 POSCAR found type information on POSCAR  H  C  N  O 
 16/POSCAR found :  4 types and      22 ions
 Jacobian:    50.2178792621697     
 POSCAR, INCAR and KPOINTS ok, starting setup
 WARNING: small aliasing (wrap around) errors must be expected
 FFT: planning ...
 WAVECAR not read
 entering main loop
       N       E                     dE             d eps       ncg     rms          rms(c)
DAV:   1     0.610031616018E+03    0.61003E+03   -0.79592E+03   392   0.485E+02
DAV:   2     0.273720885900E+03   -0.33631E+03   -0.32652E+03   573   0.918E+01
DAV:   3    -0.428832133036E+02   -0.31660E+03   -0.30824E+03   488   0.111E+02
DAV:   4    -0.136571906951E+03   -0.93689E+02   -0.93535E+02   397   0.833E+01
DAV:   5    -0.141820080781E+03   -0.52482E+01   -0.52366E+01   464   0.232E+01    0.195E+01
DAV:   6    -0.131662906348E+03    0.10157E+02   -0.23577E+01   445   0.199E+01    0.996E+00
DAV:   7    -0.129922284546E+03    0.17406E+01   -0.46661E+00   415   0.833E+00    0.515E+00
DAV:   8    -0.129435980521E+03    0.48630E+00   -0.83591E-01   440   0.401E+00    0.152E+00
DAV:   9    -0.129367599503E+03    0.68381E-01   -0.10168E-01   464   0.155E+00    0.570E-01
DAV:  10    -0.129355975571E+03    0.11624E-01   -0.25022E-02   424   0.821E-01    0.256E-01
DAV:  11    -0.129350447903E+03    0.55277E-02   -0.84353E-03   448   0.458E-01    0.162E-01
DAV:  12    -0.129351394389E+03   -0.94649E-03   -0.56997E-03   344   0.360E-01    0.989E-02
DAV:  13    -0.129357736587E+03   -0.63422E-02   -0.44455E-03   432   0.322E-01    0.600E-02
DAV:  14    -0.129364232056E+03   -0.64955E-02   -0.18448E-03   416   0.211E-01    0.393E-02
DAV:  15    -0.129372139267E+03   -0.79072E-02   -0.88209E-04   408   0.113E-01    0.249E-02
DAV:  16    -0.129378342414E+03   -0.62031E-02   -0.52035E-04   372   0.719E-02    0.137E-02
DAV:  17    -0.129381047538E+03   -0.27051E-02   -0.13407E-04   336   0.385E-02    0.918E-03
DAV:  18    -0.129382874702E+03   -0.18272E-02   -0.11829E-04   266   0.303E-02    0.557E-03
DAV:  19    -0.129383900069E+03   -0.10254E-02   -0.63221E-05   328   0.210E-02    0.339E-03
DAV:  20    -0.129384314297E+03   -0.41423E-03   -0.17709E-05   356   0.135E-02    0.191E-03
DAV:  21    -0.129384545378E+03   -0.23108E-03   -0.82956E-06   280   0.822E-03    0.121E-03
DAV:  22    -0.129384691378E+03   -0.14600E-03   -0.40839E-06   316   0.634E-03    0.707E-04
DAV:  23    -0.129384729248E+03   -0.37870E-04   -0.93275E-07   320   0.298E-03
   1 F= -.12938473E+03 E0= -.12938473E+03  d E =-.129385E+03
damped:  g(F)=  0.000E+00 g(S)=  0.000E+00 dE (1.order)= 0.000E+00
 bond charge predicted
       N       E                     dE             d eps       ncg     rms          rms(c)
DAV:   1    -0.129386343091E+03   -0.16517E-02   -0.68538E-02   363   0.136E+00    0.554E-02
DAV:   2    -0.129386443570E+03   -0.10048E-03   -0.13861E-03   464   0.182E-01    0.406E-02
DAV:   3    -0.129386431655E+03    0.11916E-04   -0.37364E-05   342   0.357E-02    0.226E-02
DAV:   4    -0.129386440669E+03   -0.90147E-05   -0.39693E-05   308   0.339E-02    0.362E-03
DAV:   5    -0.129386443367E+03   -0.26976E-05   -0.83909E-06   304   0.150E-02    0.253E-03
DAV:   6    -0.129386445759E+03   -0.23917E-05   -0.13536E-06   282   0.618E-03
   2 F= -.12938645E+03 E0= -.12938645E+03  d E =-.171651E-02
damped:  g(F)=  0.000E+00 g(S)=  0.000E+00 dE (1.order)= 0.000E+00
 bond charge predicted
       N       E                     dE             d eps       ncg     rms          rms(c)
DAV:   1    -0.129386853180E+03   -0.40981E-03   -0.16165E-01   336   0.209E+00    0.807E-02
DAV:   2    -0.129387088975E+03   -0.23579E-03   -0.32514E-03   435   0.271E-01    0.574E-02
DAV:   3    -0.129387064527E+03    0.24448E-04   -0.70429E-05   287   0.497E-02    0.324E-02
DAV:   4    -0.129387077983E+03   -0.13455E-04   -0.79777E-05   280   0.478E-02    0.522E-03
DAV:   5    -0.129387079511E+03   -0.15283E-05   -0.15931E-05   272   0.208E-02    0.375E-03
DAV:   6    -0.129387080190E+03   -0.67873E-06   -0.26077E-06   200   0.858E-03
   3 F= -.12938708E+03 E0= -.12938708E+03  d E =-.634431E-03
damped:  g(F)=  0.000E+00 g(S)=  0.000E+00 dE (1.order)= 0.000E+00
 bond charge predicted
       N       E                     dE             d eps       ncg     rms          rms(c)
DAV:   1    -0.129387905085E+03   -0.82557E-03   -0.21954E-01   332   0.241E+00    0.894E-02
DAV:   2    -0.129388243281E+03   -0.33820E-03   -0.44969E-03   372   0.301E-01    0.598E-02
DAV:   3    -0.129388235156E+03    0.81252E-05   -0.93290E-05   366   0.531E-02    0.352E-02
DAV:   4    -0.129388269696E+03   -0.34541E-04   -0.90393E-05   298   0.513E-02    0.676E-03
DAV:   5    -0.129388271276E+03   -0.15793E-05   -0.19373E-05   264   0.234E-02    0.432E-03
DAV:   6    -0.129388272344E+03   -0.10687E-05   -0.23398E-06   242   0.783E-03
   4 F= -.12938827E+03 E0= -.12938827E+03  d E =-.119215E-02
damped:  g(F)=  0.000E+00 g(S)=  0.000E+00 dE (1.order)= 0.000E+00
 bond charge predicted
       N       E                     dE             d eps       ncg     rms          rms(c)
DAV:   1    -0.129390071087E+03   -0.17998E-02   -0.36948E-01   328   0.313E+00    0.120E-01
DAV:   2    -0.129390655046E+03   -0.58396E-03   -0.78833E-03   372   0.401E-01    0.812E-02
DAV:   3    -0.129390634756E+03    0.20290E-04   -0.17496E-04   368   0.743E-02    0.486E-02
DAV:   4    -0.129390691167E+03   -0.56411E-04   -0.17138E-04   297   0.721E-02    0.944E-03
DAV:   5    -0.129390694052E+03   -0.28846E-05   -0.38597E-05   272   0.332E-02    0.603E-03
DAV:   6    -0.129390695602E+03   -0.15505E-05   -0.52249E-06   294   0.114E-02
   5 F= -.12939070E+03 E0= -.12939070E+03  d E =-.242326E-02
damped:  g(F)=  0.000E+00 g(S)=  0.000E+00 dE (1.order)= 0.000E+00
 bond charge predicted
       N       E                     dE             d eps       ncg     rms          rms(c)
DAV:   1    -0.129391358518E+03   -0.66447E-03   -0.56769E-01   329   0.386E+00    0.148E-01
DAV:   2    -0.129392251466E+03   -0.89295E-03   -0.11908E-02   364   0.490E-01    0.100E-01
DAV:   3    -0.129392221358E+03    0.30109E-04   -0.26121E-04   365   0.893E-02    0.593E-02
DAV:   4    -0.129392305486E+03   -0.84129E-04   -0.25535E-04   331   0.853E-02    0.116E-02
DAV:   5    -0.129392308910E+03   -0.34241E-05   -0.49710E-05   269   0.371E-02    0.733E-03
DAV:   6    -0.129392311154E+03   -0.22441E-05   -0.51422E-06   264   0.121E-02
   6 F= -.12939231E+03 E0= -.12939231E+03  d E =-.161555E-02
damped:  g(F)=  0.000E+00 g(S)=  0.000E+00 dE (1.order)= 0.000E+00
 bond charge predicted
       N       E                     dE             d eps       ncg     rms          rms(c)
DAV:   1    -0.129393121141E+03   -0.81223E-03   -0.77543E-01   328   0.447E+00    0.168E-01
DAV:   2    -0.129394326187E+03   -0.12050E-02   -0.15746E-02   364   0.555E-01    0.113E-01
DAV:   3    -0.129394300769E+03    0.25419E-04   -0.33366E-04   395   0.967E-02    0.653E-02
DAV:   4    -0.129394405813E+03   -0.10504E-03   -0.26586E-04   395   0.884E-02    0.118E-02
DAV:   5    -0.129394409899E+03   -0.40864E-05   -0.45714E-05   304   0.349E-02    0.807E-03
DAV:   6    -0.129394412746E+03   -0.28471E-05   -0.54683E-06   274   0.118E-02
   7 F= -.12939441E+03 E0= -.12939441E+03  d E =-.210159E-02
damped:  g(F)=  0.000E+00 g(S)=  0.000E+00 dE (1.order)= 0.000E+00
 bond charge predicted
       N       E                     dE             d eps       ncg     rms          rms(c)
DAV:   1    -0.129395027716E+03   -0.61782E-03   -0.13107E+00   328   0.580E+00    0.219E-01
DAV:   2    -0.129397041836E+03   -0.20141E-02   -0.26288E-02   364   0.718E-01    0.148E-01
DAV:   3    -0.129396979138E+03    0.62698E-04   -0.55851E-04   428   0.124E-01    0.848E-02
DAV:   4    -0.129397142893E+03   -0.16375E-03   -0.39988E-04   396   0.111E-01    0.142E-02
DAV:   5    -0.129397150059E+03   -0.71666E-05   -0.74449E-05   304   0.439E-02    0.102E-02
DAV:   6    -0.129397153097E+03   -0.30371E-05   -0.74942E-06   292   0.142E-02
   8 F= -.12939715E+03 E0= -.12939715E+03  d E =-.274035E-02
damped:  g(F)=  0.000E+00 g(S)=  0.000E+00 dE (1.order)= 0.000E+00
 bond charge predicted
       N       E                     dE             d eps       ncg     rms          rms(c)
DAV:   1    -0.129396464718E+03    0.68534E-03   -0.19703E+00   328   0.709E+00    0.269E-01
DAV:   2    -0.129399589333E+03   -0.31246E-02   -0.40606E-02   364   0.881E-01    0.181E-01
DAV:   3    -0.129399507160E+03    0.82173E-04   -0.84355E-04   437   0.152E-01    0.105E-01
DAV:   4    -0.129399784621E+03   -0.27746E-03   -0.59313E-04   380   0.133E-01    0.182E-02
DAV:   5    -0.129399796371E+03   -0.11749E-04   -0.11161E-04   328   0.526E-02    0.127E-02
DAV:   6    -0.129399801059E+03   -0.46880E-05   -0.75140E-06   274   0.139E-02
   9 F= -.12939980E+03 E0= -.12939980E+03  d E =-.264796E-02
damped:  g(F)=  0.000E+00 g(S)=  0.000E+00 dE (1.order)= 0.000E+00
 bond charge predicted
       N       E                     dE             d eps       ncg     rms          rms(c)
DAV:   1    -0.129398340054E+03    0.14563E-02   -0.28987E+00   328   0.863E+00    0.330E-01
DAV:   2    -0.129403105135E+03   -0.47651E-02   -0.61539E-02   364   0.109E+00    0.222E-01
DAV:   3    -0.129402983442E+03    0.12169E-03   -0.12896E-03   437   0.187E-01    0.130E-01
DAV:   4    -0.129403417709E+03   -0.43427E-03   -0.88010E-04   395   0.161E-01    0.227E-02
DAV:   5    -0.129403435797E+03   -0.18087E-04   -0.16488E-04   302   0.644E-02    0.150E-02
DAV:   6    -0.129403443361E+03   -0.75648E-05   -0.12109E-05   326   0.175E-02
  10 F= -.12940344E+03 E0= -.12940344E+03  d E =-.364230E-02
damped:  g(F)=  0.000E+00 g(S)=  0.000E+00 dE (1.order)= 0.000E+00
 bond charge predicted
       N       E                     dE             d eps       ncg     rms          rms(c)
DAV:   1    -0.129399821184E+03    0.36146E-02   -0.43323E+00   328   0.106E+01    0.402E-01
DAV:   2    -0.129406866518E+03   -0.70453E-02   -0.90371E-02   364   0.133E+00    0.267E-01
DAV:   3    -0.129406670878E+03    0.19564E-03   -0.18637E-03   428   0.227E-01    0.155E-01
DAV:   4    -0.129407261500E+03   -0.59062E-03   -0.13628E-03   396   0.207E-01    0.279E-02
DAV:   5    -0.129407287132E+03   -0.25632E-04   -0.27089E-04   360   0.833E-02    0.193E-02
DAV:   6    -0.129407295861E+03   -0.87285E-05   -0.16608E-05   322   0.209E-02
  11 F= -.12940730E+03 E0= -.12940730E+03  d E =-.385250E-02
damped:  g(F)=  0.000E+00 g(S)=  0.000E+00 dE (1.order)= 0.000E+00
 bond charge predicted
       N       E                     dE             d eps       ncg     rms          rms(c)
DAV:   1    -0.129401038206E+03    0.62489E-02   -0.57056E+00   328   0.122E+01    0.469E-01
DAV:   2    -0.129410677780E+03   -0.96396E-02   -0.12191E-01   364   0.155E+00    0.310E-01
DAV:   3    -0.129410390142E+03    0.28764E-03   -0.25565E-03   428   0.265E-01    0.182E-01
DAV:   4    -0.129411106707E+03   -0.71656E-03   -0.18478E-03   396   0.238E-01    0.345E-02
DAV:   5    -0.129411142653E+03   -0.35946E-04   -0.38333E-04   392   0.985E-02    0.227E-02
DAV:   6    -0.129411153274E+03   -0.10621E-04   -0.19996E-05   286   0.236E-02
  12 F= -.12941115E+03 E0= -.12941115E+03  d E =-.385741E-02
damped:  g(F)=  0.000E+00 g(S)=  0.000E+00 dE (1.order)= 0.000E+00
 bond charge predicted
       N       E                     dE             d eps       ncg     rms          rms(c)
DAV:   1    -0.129402124939E+03    0.90177E-02   -0.67463E+00   328   0.133E+01    0.516E-01
DAV:   2    -0.129414257616E+03   -0.12133E-01   -0.15082E-01   364   0.173E+00    0.339E-01
DAV:   3    -0.129413893301E+03    0.36432E-03   -0.31795E-03   428   0.296E-01    0.200E-01
DAV:   4    -0.129414675552E+03   -0.78225E-03   -0.21804E-03   396   0.264E-01    0.366E-02
DAV:   5    -0.129414722512E+03   -0.46960E-04   -0.46381E-04   432   0.109E-01    0.259E-02
DAV:   6    -0.129414733525E+03   -0.11013E-04   -0.21721E-05   286   0.244E-02
  13 F= -.12941473E+03 E0= -.12941473E+03  d E =-.358025E-02
damped:  g(F)=  0.000E+00 g(S)=  0.000E+00 dE (1.order)= 0.000E+00
 bond charge predicted
       N       E                     dE             d eps       ncg     rms          rms(c)
DAV:   1    -0.129416273765E+03   -0.15513E-02   -0.62169E-02   337   0.132E+00    0.668E-02
DAV:   2    -0.129416428090E+03   -0.15432E-03   -0.21864E-03   443   0.221E-01    0.464E-02
DAV:   3    -0.129416417693E+03    0.10397E-04   -0.61931E-05   367   0.440E-02    0.288E-02
DAV:   4    -0.129416434386E+03   -0.16693E-04   -0.73342E-05   256   0.468E-02    0.556E-03
DAV:   5    -0.129416442630E+03   -0.82439E-05   -0.16225E-05   368   0.211E-02    0.332E-03
DAV:   6    -0.129416448298E+03   -0.56687E-05   -0.20845E-06   274   0.741E-03
  14 F= -.12941645E+03 E0= -.12941645E+03  d E =-.171477E-02
damped:  g(F)=  0.000E+00 g(S)=  0.000E+00 dE (1.order)= 0.000E+00
 bond charge predicted
       N       E                     dE             d eps       ncg     rms          rms(c)
DAV:   1    -0.129416065365E+03    0.37726E-03   -0.86228E-02   330   0.154E+00    0.753E-02
DAV:   2    -0.129416215867E+03   -0.15050E-03   -0.25736E-03   428   0.243E-01    0.523E-02
DAV:   3    -0.129416185472E+03    0.30394E-04   -0.80367E-05   368   0.499E-02    0.321E-02
DAV:   4    -0.129416180069E+03    0.54037E-05   -0.90678E-05   265   0.516E-02    0.642E-03
DAV:   5    -0.129416181933E+03   -0.18644E-05   -0.20064E-05   272   0.238E-02    0.382E-03
DAV:   6    -0.129416183697E+03   -0.17640E-05   -0.32539E-06   336   0.935E-03
  15 F= -.12941618E+03 E0= -.12941618E+03  d E =0.264601E-03
damped:  g(F)=  0.000E+00 g(S)=  0.000E+00 dE (1.order)= 0.000E+00
 bond charge predicted
       N       E                     dE             d eps       ncg     rms          rms(c)
DAV:   1    -0.129416451894E+03   -0.26996E-03   -0.21318E-03   354   0.246E-01    0.129E-02
DAV:   2    -0.129416459928E+03   -0.80341E-05   -0.79635E-05   336   0.429E-02    0.853E-03
DAV:   3    -0.129416462126E+03   -0.21983E-05   -0.70692E-06   200   0.136E-02    0.496E-03
DAV:   4    -0.129416465770E+03   -0.36432E-05   -0.22552E-06   268   0.786E-03    0.138E-03
DAV:   5    -0.129416467998E+03   -0.22287E-05   -0.61547E-07   304   0.382E-03    0.560E-04
DAV:   6    -0.129416468979E+03   -0.98043E-06   -0.13388E-07   202   0.168E-03
  16 F= -.12941647E+03 E0= -.12941647E+03  d E =-.285282E-03
damped:  g(F)=  0.000E+00 g(S)=  0.000E+00 dE (1.order)= 0.000E+00
 bond charge predicted
       N       E                     dE             d eps       ncg     rms          rms(c)
DAV:   1    -0.129416792073E+03   -0.32407E-03   -0.67859E-03   365   0.438E-01    0.230E-02
DAV:   2    -0.129416809724E+03   -0.17651E-04   -0.27307E-04   371   0.772E-02    0.154E-02
DAV:   3    -0.129416807821E+03    0.19031E-05   -0.92302E-06   264   0.168E-02    0.959E-03
DAV:   4    -0.129416807198E+03    0.62326E-06   -0.93023E-06   264   0.162E-02    0.233E-03
DAV:   5    -0.129416807317E+03   -0.11885E-06   -0.20067E-06   272   0.752E-03    0.122E-03
DAV:   6    -0.129416807516E+03   -0.19951E-06   -0.36326E-07   202   0.316E-03
  17 F= -.12941681E+03 E0= -.12941681E+03  d E =-.338537E-03
damped:  g(F)=  0.000E+00 g(S)=  0.000E+00 dE (1.order)= 0.000E+00
 bond charge predicted
       N       E                     dE             d eps       ncg     rms          rms(c)
DAV:   1    -0.129416965987E+03   -0.15867E-03   -0.99077E-03   364   0.530E-01    0.269E-02
DAV:   2    -0.129416987867E+03   -0.21880E-04   -0.38050E-04   380   0.915E-02    0.182E-02
DAV:   3    -0.129416983469E+03    0.43978E-05   -0.13186E-05   272   0.201E-02    0.114E-02
DAV:   4    -0.129416980202E+03    0.32675E-05   -0.13166E-05   264   0.194E-02    0.277E-03
DAV:   5    -0.129416980199E+03    0.27057E-08   -0.28483E-06   272   0.899E-03    0.150E-03
DAV:   6    -0.129416980561E+03   -0.36226E-06   -0.52016E-07   200   0.383E-03
  18 F= -.12941698E+03 E0= -.12941698E+03  d E =-.173045E-03
damped:  g(F)=  0.000E+00 g(S)=  0.000E+00 dE (1.order)= 0.000E+00
 bond charge predicted
       N       E                     dE             d eps       ncg     rms          rms(c)
DAV:   1    -0.129416967425E+03    0.12775E-04   -0.79770E-03   380   0.478E-01    0.224E-02
DAV:   2    -0.129416981338E+03   -0.13913E-04   -0.24961E-04   268   0.771E-02    0.148E-02
DAV:   3    -0.129416979833E+03    0.15048E-05   -0.19183E-05   248   0.221E-02    0.917E-03
DAV:   4    -0.129416979078E+03    0.75532E-06   -0.98309E-06   200   0.169E-02    0.208E-03
DAV:   5    -0.129416979438E+03   -0.36041E-06   -0.25663E-06   204   0.809E-03    0.139E-03
DAV:   6    -0.129416980001E+03   -0.56298E-06   -0.68405E-07   238   0.388E-03
  19 F= -.12941698E+03 E0= -.12941698E+03  d E =0.560438E-06
damped:  g(F)=  0.000E+00 g(S)=  0.000E+00 dE (1.order)= 0.000E+00
 bond charge predicted
       N       E                     dE             d eps       ncg     rms          rms(c)
DAV:   1    -0.129417001713E+03   -0.22275E-04   -0.34149E-05   224   0.321E-02    0.160E-03
DAV:   2    -0.129417002648E+03   -0.93514E-06   -0.24861E-06   238   0.885E-03    0.113E-03
DAV:   3    -0.129417003262E+03   -0.61329E-06   -0.30494E-07   208   0.273E-03    0.842E-04
DAV:   4    -0.129417004454E+03   -0.11929E-05   -0.11540E-07   237   0.171E-03    0.280E-04
DAV:   5    -0.129417005139E+03   -0.68490E-06   -0.46225E-08   262   0.899E-04    0.185E-04
DAV:   6    -0.129417005674E+03   -0.53427E-06   -0.16644E-08   202   0.610E-04
  20 F= -.12941701E+03 E0= -.12941701E+03  d E =-.256726E-04
damped:  g(F)=  0.000E+00 g(S)=  0.000E+00 dE (1.order)= 0.000E+00
 bond charge predicted
       N       E                     dE             d eps       ncg     rms          rms(c)
DAV:   1    -0.129417043652E+03   -0.38513E-04   -0.13262E-04   268   0.624E-02    0.307E-03
DAV:   2    -0.129417044719E+03   -0.10670E-05   -0.84784E-06   261   0.160E-02    0.207E-03
DAV:   3    -0.129417045050E+03   -0.33106E-06   -0.92410E-07   202   0.494E-03    0.155E-03
DAV:   4    -0.129417045553E+03   -0.50328E-06   -0.27712E-07   235   0.294E-03    0.508E-04
DAV:   5    -0.129417045803E+03   -0.25012E-06   -0.67716E-08   272   0.142E-03    0.287E-04
DAV:   6    -0.129417045995E+03   -0.19126E-06   -0.78676E-09   200   0.752E-04
  21 F= -.12941705E+03 E0= -.12941705E+03  d E =-.403210E-04
damped:  g(F)=  0.000E+00 g(S)=  0.000E+00 dE (1.order)= 0.000E+00
 bond charge predicted
       N       E                     dE             d eps       ncg     rms          rms(c)
DAV:   1    -0.129417093963E+03   -0.48159E-04   -0.27455E-04   351   0.891E-02    0.449E-03
DAV:   2    -0.129417094946E+03   -0.98338E-06   -0.12647E-05   230   0.177E-02    0.298E-03
DAV:   3    -0.129417095030E+03   -0.84483E-07   -0.13800E-06   272   0.587E-03    0.200E-03
DAV:   4    -0.129417095045E+03   -0.14149E-07   -0.42047E-07   212   0.348E-03    0.594E-04
DAV:   5    -0.129417095055E+03   -0.10276E-07   -0.10195E-07   270   0.174E-03    0.300E-04
DAV:   6    -0.129417095081E+03   -0.25896E-07   -0.17393E-08   196   0.879E-04
  22 F= -.12941710E+03 E0= -.12941710E+03  d E =-.490860E-04
damped:  g(F)=  0.000E+00 g(S)=  0.000E+00 dE (1.order)= 0.000E+00
 bond charge predicted
       N       E                     dE             d eps       ncg     rms          rms(c)
DAV:   1    -0.129417145693E+03   -0.50638E-04   -0.42392E-04   364   0.111E-01    0.616E-03
DAV:   2    -0.129417146645E+03   -0.95153E-06   -0.16571E-05   236   0.201E-02    0.375E-03
DAV:   3    -0.129417146570E+03    0.74619E-07   -0.18665E-06   248   0.674E-03    0.225E-03
DAV:   4    -0.129417146417E+03    0.15323E-06   -0.53064E-07   208   0.382E-03    0.663E-04
DAV:   5    -0.129417146382E+03    0.35040E-07   -0.12307E-07   186   0.194E-03    0.280E-04
DAV:   6    -0.129417146404E+03   -0.22149E-07   -0.13474E-08   192   0.961E-04
  23 F= -.12941715E+03 E0= -.12941715E+03  d E =-.513232E-04
damped:  g(F)=  0.000E+00 g(S)=  0.000E+00 dE (1.order)= 0.000E+00
 bond charge predicted
       N       E                     dE             d eps       ncg     rms          rms(c)
DAV:   1    -0.129417193492E+03   -0.47111E-04   -0.54116E-04   328   0.125E-01    0.676E-03
DAV:   2    -0.129417194660E+03   -0.11675E-05   -0.20540E-05   204   0.224E-02    0.417E-03
DAV:   3    -0.129417194575E+03    0.84878E-07   -0.23027E-06   237   0.750E-03    0.252E-03
DAV:   4    -0.129417194410E+03    0.16480E-06   -0.66751E-07   199   0.428E-03    0.743E-04
DAV:   5    -0.129417194387E+03    0.23308E-07   -0.15872E-07   164   0.216E-03    0.319E-04
DAV:   6    -0.129417194430E+03   -0.42945E-07   -0.22790E-08   164   0.108E-03
  24 F= -.12941719E+03 E0= -.12941719E+03  d E =-.480258E-04
damped:  g(F)=  0.000E+00 g(S)=  0.000E+00 dE (1.order)= 0.000E+00
 bond charge predicted
       N       E                     dE             d eps       ncg     rms          rms(c)
DAV:   1    -0.129417235381E+03   -0.40995E-04   -0.59789E-04   339   0.132E-01    0.681E-03
DAV:   2    -0.129417236644E+03   -0.12624E-05   -0.21495E-05   203   0.230E-02    0.425E-03
DAV:   3    -0.129417236586E+03    0.57978E-07   -0.23896E-06   164   0.767E-03    0.260E-03
DAV:   4    -0.129417236465E+03    0.12055E-06   -0.70776E-07   167   0.443E-03    0.761E-04
DAV:   5    -0.129417236468E+03   -0.30300E-08   -0.16981E-07   164   0.222E-03    0.335E-04
DAV:   6    -0.129417236533E+03   -0.64550E-07   -0.28149E-08   164   0.111E-03
  25 F= -.12941724E+03 E0= -.12941724E+03  d E =-.421030E-04
damped:  g(F)=  0.000E+00 g(S)=  0.000E+00 dE (1.order)= 0.000E+00
 bond charge predicted
       N       E                     dE             d eps       ncg     rms          rms(c)
DAV:   1    -0.129417276997E+03   -0.40529E-04   -0.72357E-04   330   0.144E-01    0.698E-03
DAV:   2    -0.129417278422E+03   -0.14246E-05   -0.23426E-05   202   0.241E-02    0.442E-03
DAV:   3    -0.129417278405E+03    0.17416E-07   -0.25526E-06   164   0.798E-03    0.274E-03
DAV:   4    -0.129417278351E+03    0.53807E-07   -0.77458E-07   164   0.466E-03    0.788E-04
DAV:   5    -0.129417278372E+03   -0.21468E-07   -0.18883E-07   164   0.231E-03    0.361E-04
DAV:   6    -0.129417278449E+03   -0.76257E-07   -0.37367E-08   164   0.117E-03
  26 F= -.12941728E+03 E0= -.12941728E+03  d E =-.419157E-04
damped:  g(F)=  0.000E+00 g(S)=  0.000E+00 dE (1.order)= 0.000E+00
 bond charge predicted
       N       E                     dE             d eps       ncg     rms          rms(c)
DAV:   1    -0.129417325028E+03   -0.46656E-04   -0.83987E-04   328   0.153E-01    0.679E-03
DAV:   2    -0.129417326485E+03   -0.14565E-05   -0.22671E-05   200   0.235E-02    0.431E-03
DAV:   3    -0.129417326544E+03   -0.59290E-07   -0.23531E-06   164   0.775E-03    0.266E-03
DAV:   4    -0.129417326628E+03   -0.84167E-07   -0.71097E-07   164   0.451E-03    0.731E-04
DAV:   5    -0.129417326678E+03   -0.49786E-07   -0.17759E-07   164   0.222E-03    0.358E-04
DAV:   6    -0.129417326764E+03   -0.85956E-07   -0.38573E-08   164   0.111E-03
  27 F= -.12941733E+03 E0= -.12941733E+03  d E =-.483156E-04
damped:  g(F)=  0.000E+00 g(S)=  0.000E+00 dE (1.order)= 0.000E+00
 bond charge predicted
       N       E                     dE             d eps       ncg     rms          rms(c)
DAV:   1    -0.129417390800E+03   -0.64122E-04   -0.10574E-03   323   0.168E-01    0.682E-03
DAV:   2    -0.129417392694E+03   -0.18936E-05   -0.26311E-05   192   0.257E-02    0.424E-03
DAV:   3    -0.129417392945E+03   -0.25073E-06   -0.26688E-06   164   0.867E-03    0.256E-03
DAV:   4    -0.129417393222E+03   -0.27775E-06   -0.71547E-07   200   0.468E-03    0.637E-04
DAV:   5    -0.129417393307E+03   -0.84317E-07   -0.19072E-07   164   0.232E-03    0.346E-04
DAV:   6    -0.129417393395E+03   -0.88304E-07   -0.44173E-08   217   0.113E-03
  28 F= -.12941739E+03 E0= -.12941739E+03  d E =-.666308E-04
damped:  g(F)=  0.000E+00 g(S)=  0.000E+00 dE (1.order)= 0.000E+00
 bond charge predicted
       N       E                     dE             d eps       ncg     rms          rms(c)
DAV:   1    -0.129417487070E+03   -0.93764E-04   -0.16011E-03   355   0.205E-01    0.809E-03
DAV:   2    -0.129417489408E+03   -0.23381E-05   -0.32887E-05   210   0.267E-02    0.503E-03
DAV:   3    -0.129417489750E+03   -0.34122E-06   -0.29620E-06   211   0.868E-03    0.278E-03
DAV:   4    -0.129417490197E+03   -0.44747E-06   -0.78913E-07   263   0.464E-03    0.564E-04
DAV:   5    -0.129417490299E+03   -0.10220E-06   -0.22438E-07   204   0.222E-03    0.317E-04
DAV:   6    -0.129417490375E+03   -0.76112E-07   -0.58274E-08   250   0.106E-03
  29 F= -.12941749E+03 E0= -.12941749E+03  d E =-.969804E-04
damped:  g(F)=  0.000E+00 g(S)=  0.000E+00 dE (1.order)= 0.000E+00
 bond charge predicted
       N       E                     dE             d eps       ncg     rms          rms(c)
DAV:   1    -0.129417616802E+03   -0.12650E-03   -0.27330E-03   331   0.270E-01    0.108E-02
DAV:   2    -0.129417621187E+03   -0.43853E-05   -0.62276E-05   295   0.367E-02    0.684E-03
DAV:   3    -0.129417621428E+03   -0.24075E-06   -0.38677E-06   264   0.952E-03    0.395E-03
DAV:   4    -0.129417621920E+03   -0.49182E-06   -0.15234E-06   253   0.647E-03    0.735E-04
DAV:   5    -0.129417621974E+03   -0.54485E-07   -0.42885E-07   252   0.306E-03    0.484E-04
DAV:   6    -0.129417622012E+03   -0.38058E-07   -0.11309E-07   182   0.140E-03
  30 F= -.12941762E+03 E0= -.12941762E+03  d E =-.131637E-03
damped:  g(F)=  0.000E+00 g(S)=  0.000E+00 dE (1.order)= 0.000E+00
 bond charge predicted
       N       E                     dE             d eps       ncg     rms          rms(c)
DAV:   1    -0.129417773073E+03   -0.15110E-03   -0.46678E-03   331   0.356E-01    0.145E-02
DAV:   2    -0.129417780758E+03   -0.76849E-05   -0.11185E-04   244   0.495E-02    0.915E-03
DAV:   3    -0.129417780951E+03   -0.19390E-06   -0.70644E-06   255   0.129E-02    0.531E-03
DAV:   4    -0.129417781489E+03   -0.53723E-06   -0.28588E-06   218   0.891E-03    0.989E-04
DAV:   5    -0.129417781548E+03   -0.59770E-07   -0.80659E-07   240   0.424E-03    0.663E-04
DAV:   6    -0.129417781616E+03   -0.67664E-07   -0.22104E-07   184   0.193E-03
  31 F= -.12941778E+03 E0= -.12941778E+03  d E =-.159604E-03
damped:  g(F)=  0.000E+00 g(S)=  0.000E+00 dE (1.order)= 0.000E+00
 bond charge predicted
       N       E                     dE             d eps       ncg     rms          rms(c)
DAV:   1    -0.129417948196E+03   -0.16665E-03   -0.74385E-03   329   0.448E-01    0.180E-02
DAV:   2    -0.129417960246E+03   -0.12050E-04   -0.17290E-04   250   0.614E-02    0.114E-02
DAV:   3    -0.129417960661E+03   -0.41550E-06   -0.10801E-05   228   0.160E-02    0.661E-03
DAV:   4    -0.129417961725E+03   -0.10637E-05   -0.43438E-06   244   0.110E-02    0.119E-03
DAV:   5    -0.129417961884E+03   -0.15915E-06   -0.12536E-06   200   0.526E-03    0.822E-04
DAV:   6    -0.129417962027E+03   -0.14324E-06   -0.34963E-07   164   0.236E-03
  32 F= -.12941796E+03 E0= -.12941796E+03  d E =-.180411E-03
damped:  g(F)=  0.000E+00 g(S)=  0.000E+00 dE (1.order)= 0.000E+00
 bond charge predicted
       N       E                     dE             d eps       ncg     rms          rms(c)
DAV:   1    -0.129418155355E+03   -0.19347E-03   -0.11251E-02   333   0.546E-01    0.215E-02
DAV:   2    -0.129418173492E+03   -0.18137E-04   -0.24796E-04   268   0.714E-02    0.136E-02
DAV:   3    -0.129418173976E+03   -0.48431E-06   -0.10186E-05   209   0.168E-02    0.781E-03
DAV:   4    -0.129418175875E+03   -0.18990E-05   -0.47155E-06   236   0.125E-02    0.126E-03
DAV:   5    -0.129418176121E+03   -0.24581E-06   -0.12459E-06   200   0.552E-03    0.882E-04
DAV:   6    -0.129418176321E+03   -0.20018E-06   -0.25170E-07   164   0.230E-03
  33 F= -.12941818E+03 E0= -.12941818E+03  d E =-.214294E-03
damped:  g(F)=  0.000E+00 g(S)=  0.000E+00 dE (1.order)= 0.000E+00
 bond charge predicted
       N       E                     dE             d eps       ncg     rms          rms(c)
DAV:   1    -0.129418422776E+03   -0.24665E-03   -0.17477E-02   332   0.677E-01    0.264E-02
DAV:   2    -0.129418450855E+03   -0.28080E-04   -0.37398E-04   331   0.858E-02    0.173E-02
DAV:   3    -0.129418450945E+03   -0.89351E-07   -0.96303E-06   237   0.175E-02    0.993E-03
DAV:   4    -0.129418454392E+03   -0.34477E-05   -0.72230E-06   234   0.150E-02    0.168E-03
DAV:   5    -0.129418454662E+03   -0.26926E-06   -0.18559E-06   239   0.677E-03    0.112E-03
DAV:   6    -0.129418454856E+03   -0.19399E-06   -0.32829E-07   208   0.256E-03
  34 F= -.12941845E+03 E0= -.12941845E+03  d E =-.278534E-03
damped:  g(F)=  0.000E+00 g(S)=  0.000E+00 dE (1.order)= 0.000E+00
 bond charge predicted
       N       E                     dE             d eps       ncg     rms          rms(c)
DAV:   1    -0.129418752555E+03   -0.29789E-03   -0.28563E-02   332   0.866E-01    0.342E-02
DAV:   2    -0.129418799743E+03   -0.47188E-04   -0.62797E-04   364   0.111E-01    0.229E-02
DAV:   3    -0.129418798326E+03    0.14171E-05   -0.11011E-05   264   0.196E-02    0.136E-02
DAV:   4    -0.129418803936E+03   -0.56099E-05   -0.14129E-05   240   0.200E-02    0.287E-03
DAV:   5    -0.129418804109E+03   -0.17288E-06   -0.31365E-06   264   0.945E-03    0.161E-03
DAV:   6    -0.129418804266E+03   -0.15739E-06   -0.35324E-07   204   0.305E-03
  35 F= -.12941880E+03 E0= -.12941880E+03  d E =-.349411E-03
damped:  g(F)=  0.000E+00 g(S)=  0.000E+00 dE (1.order)= 0.000E+00
 bond charge predicted
       N       E                     dE             d eps       ncg     rms          rms(c)
DAV:   1    -0.129419130823E+03   -0.32671E-03   -0.46882E-02   331   0.111E+00    0.441E-02
DAV:   2    -0.129419207001E+03   -0.76178E-04   -0.10220E-03   364   0.142E-01    0.294E-02
DAV:   3    -0.129419204708E+03    0.22929E-05   -0.18007E-05   248   0.252E-02    0.174E-02
DAV:   4    -0.129419213301E+03   -0.85935E-05   -0.23347E-05   248   0.257E-02    0.374E-03
DAV:   5    -0.129419213546E+03   -0.24521E-06   -0.52145E-06   264   0.122E-02    0.208E-03
DAV:   6    -0.129419213792E+03   -0.24589E-06   -0.61095E-07   202   0.394E-03
  36 F= -.12941921E+03 E0= -.12941921E+03  d E =-.409526E-03
damped:  g(F)=  0.000E+00 g(S)=  0.000E+00 dE (1.order)= 0.000E+00
 bond charge predicted
       N       E                     dE             d eps       ncg     rms          rms(c)
DAV:   1    -0.129419586882E+03   -0.37334E-03   -0.75947E-02   330   0.141E+00    0.558E-02
DAV:   2    -0.129419706360E+03   -0.11948E-03   -0.16031E-03   364   0.178E-01    0.366E-02
DAV:   3    -0.129419704294E+03    0.20662E-05   -0.27342E-05   227   0.310E-02    0.212E-02
DAV:   4    -0.129419718232E+03   -0.13939E-04   -0.35328E-05   299   0.308E-02    0.428E-03
DAV:   5    -0.129419718671E+03   -0.43853E-06   -0.66872E-06   237   0.137E-02    0.265E-03
DAV:   6    -0.129419719029E+03   -0.35832E-06   -0.77290E-07   232   0.456E-03
  37 F= -.12941972E+03 E0= -.12941972E+03  d E =-.505237E-03
damped:  g(F)=  0.000E+00 g(S)=  0.000E+00 dE (1.order)= 0.000E+00
 bond charge predicted
       N       E                     dE             d eps       ncg     rms          rms(c)
DAV:   1    -0.129420137917E+03   -0.41925E-03   -0.12333E-01   329   0.180E+00    0.713E-02
DAV:   2    -0.129420331790E+03   -0.19387E-03   -0.26053E-03   364   0.228E-01    0.464E-02
DAV:   3    -0.129420329883E+03    0.19067E-05   -0.48284E-05   268   0.388E-02    0.266E-02
DAV:   4    -0.129420349960E+03   -0.20077E-04   -0.45372E-05   269   0.373E-02    0.447E-03
DAV:   5    -0.129420350888E+03   -0.92763E-06   -0.10085E-05   264   0.165E-02    0.301E-03
DAV:   6    -0.129420351447E+03   -0.55931E-06   -0.12423E-06   250   0.565E-03
  38 F= -.12942035E+03 E0= -.12942035E+03  d E =-.632418E-03
damped:  g(F)=  0.000E+00 g(S)=  0.000E+00 dE (1.order)= 0.000E+00
 bond charge predicted
       N       E                     dE             d eps       ncg     rms          rms(c)
DAV:   1    -0.129420762695E+03   -0.41181E-03   -0.19172E-01   333   0.224E+00    0.889E-02
DAV:   2    -0.129421060903E+03   -0.29821E-03   -0.39945E-03   364   0.282E-01    0.577E-02
DAV:   3    -0.129421057797E+03    0.31065E-05   -0.76090E-05   300   0.481E-02    0.329E-02
DAV:   4    -0.129421087680E+03   -0.29884E-04   -0.70707E-05   260   0.467E-02    0.560E-03
DAV:   5    -0.129421089058E+03   -0.13774E-05   -0.15516E-05   264   0.206E-02    0.365E-03
DAV:   6    -0.129421089957E+03   -0.89964E-06   -0.17658E-06   274   0.688E-03
  39 F= -.12942109E+03 E0= -.12942109E+03  d E =-.738510E-03
damped:  g(F)=  0.000E+00 g(S)=  0.000E+00 dE (1.order)= 0.000E+00
 bond charge predicted
       N       E                     dE             d eps       ncg     rms          rms(c)
DAV:   1    -0.129421534389E+03   -0.44533E-03   -0.28154E-01   330   0.272E+00    0.108E-01
DAV:   2    -0.129421973384E+03   -0.43900E-03   -0.58148E-03   364   0.341E-01    0.707E-02
DAV:   3    -0.129421966365E+03    0.70194E-05   -0.11416E-04   332   0.595E-02    0.404E-02
DAV:   4    -0.129422010796E+03   -0.44431E-04   -0.10357E-04   267   0.565E-02    0.696E-03
DAV:   5    -0.129422012511E+03   -0.17156E-05   -0.23017E-05   240   0.253E-02    0.439E-03
DAV:   6    -0.129422013619E+03   -0.11074E-05   -0.26082E-06   298   0.807E-03
  40 F= -.12942201E+03 E0= -.12942201E+03  d E =-.923661E-03
damped:  g(F)=  0.000E+00 g(S)=  0.000E+00 dE (1.order)= 0.000E+00
 bond charge predicted
       N       E                     dE             d eps       ncg     rms          rms(c)
DAV:   1    -0.129422378841E+03   -0.36633E-03   -0.40295E-01   329   0.325E+00    0.129E-01
DAV:   2    -0.129423015661E+03   -0.63682E-03   -0.84057E-03   364   0.409E-01    0.848E-02
DAV:   3    -0.129423005110E+03    0.10551E-04   -0.16550E-04   332   0.716E-02    0.486E-02
DAV:   4    -0.129423068803E+03   -0.63692E-04   -0.14918E-04   268   0.676E-02    0.853E-03
DAV:   5    -0.129423071173E+03   -0.23704E-05   -0.34007E-05   279   0.305E-02    0.534E-03
DAV:   6    -0.129423072564E+03   -0.13914E-05   -0.31342E-06   258   0.910E-03
  41 F= -.12942307E+03 E0= -.12942307E+03  d E =-.105895E-02
damped:  g(F)=  0.000E+00 g(S)=  0.000E+00 dE (1.order)= 0.000E+00
 bond charge predicted
       N       E                     dE             d eps       ncg     rms          rms(c)
DAV:   1    -0.129423322267E+03   -0.25109E-03   -0.54415E-01   328   0.378E+00    0.152E-01
DAV:   2    -0.129424208079E+03   -0.88581E-03   -0.11684E-02   364   0.482E-01    0.977E-02
DAV:   3    -0.129424198521E+03    0.95577E-05   -0.22910E-04   364   0.823E-02    0.562E-02
DAV:   4    -0.129424283427E+03   -0.84906E-04   -0.20418E-04   316   0.774E-02    0.101E-02
DAV:   5    -0.129424286455E+03   -0.30285E-05   -0.37706E-05   296   0.320E-02    0.651E-03
DAV:   6    -0.129424288649E+03   -0.21936E-05   -0.39996E-06   266   0.106E-02
  42 F= -.12942429E+03 E0= -.12942429E+03  d E =-.121608E-02
damped:  g(F)=  0.000E+00 g(S)=  0.000E+00 dE (1.order)= 0.000E+00
 bond charge predicted
       N       E                     dE             d eps       ncg     rms          rms(c)
DAV:   1    -0.129424470581E+03   -0.18413E-03   -0.65117E-01   329   0.414E+00    0.165E-01
DAV:   2    -0.129425553506E+03   -0.10829E-02   -0.14079E-02   364   0.528E-01    0.109E-01
DAV:   3    -0.129425531421E+03    0.22085E-04   -0.29369E-04   365   0.940E-02    0.634E-02
DAV:   4    -0.129425633066E+03   -0.10164E-03   -0.24526E-04   299   0.860E-02    0.114E-02
DAV:   5    -0.129425636718E+03   -0.36516E-05   -0.47644E-05   288   0.363E-02    0.711E-03
DAV:   6    -0.129425639132E+03   -0.24137E-05   -0.42479E-06   300   0.109E-02
  43 F= -.12942564E+03 E0= -.12942564E+03  d E =-.135048E-02
damped:  g(F)=  0.000E+00 g(S)=  0.000E+00 dE (1.order)= 0.000E+00
 bond charge predicted
       N       E                     dE             d eps       ncg     rms          rms(c)
DAV:   1    -0.129425546835E+03    0.89883E-04   -0.78065E-01   328   0.455E+00    0.182E-01
DAV:   2    -0.129426920774E+03   -0.13739E-02   -0.17868E-02   364   0.596E-01    0.117E-01
DAV:   3    -0.129426905442E+03    0.15332E-04   -0.34977E-04   372   0.997E-02    0.679E-02
DAV:   4    -0.129427021611E+03   -0.11617E-03   -0.26822E-04   340   0.936E-02    0.117E-02
DAV:   5    -0.129427027899E+03   -0.62875E-05   -0.55319E-05   304   0.392E-02    0.835E-03
DAV:   6    -0.129427031539E+03   -0.36401E-05   -0.61640E-06   290   0.132E-02
  44 F= -.12942703E+03 E0= -.12942703E+03  d E =-.139241E-02
damped:  g(F)=  0.000E+00 g(S)=  0.000E+00 dE (1.order)= 0.000E+00
 bond charge predicted
       N       E                     dE             d eps       ncg     rms          rms(c)
DAV:   1    -0.129426571301E+03    0.45660E-03   -0.88588E-01   328   0.488E+00    0.201E-01
DAV:   2    -0.129428237529E+03   -0.16662E-02   -0.21497E-02   339   0.660E-01    0.135E-01
DAV:   3    -0.129428175484E+03    0.62046E-04   -0.51911E-04   424   0.121E-01    0.812E-02
DAV:   4    -0.129428302920E+03   -0.12744E-03   -0.36459E-04   378   0.107E-01    0.152E-02
DAV:   5    -0.129428308295E+03   -0.53747E-05   -0.66014E-05   304   0.428E-02    0.922E-03
DAV:   6    -0.129428311999E+03   -0.37045E-05   -0.67503E-06   286   0.136E-02
  45 F= -.12942831E+03 E0= -.12942831E+03  d E =-.128046E-02
damped:  g(F)=  0.000E+00 g(S)=  0.000E+00 dE (1.order)= 0.000E+00
 bond charge predicted
       N       E                     dE             d eps       ncg     rms          rms(c)
DAV:   1    -0.129428682602E+03   -0.37431E-03   -0.15877E-02   340   0.633E-01    0.441E-02
DAV:   2    -0.129428735013E+03   -0.52411E-04   -0.70901E-04   427   0.115E-01    0.243E-02
DAV:   3    -0.129428732025E+03    0.29881E-05   -0.16692E-05   279   0.223E-02    0.136E-02
DAV:   4    -0.129428735082E+03   -0.30563E-05   -0.15572E-05   264   0.196E-02    0.273E-03
DAV:   5    -0.129428737688E+03   -0.26061E-05   -0.32462E-06   296   0.883E-03    0.163E-03
DAV:   6    -0.129428739469E+03   -0.17816E-05   -0.49843E-07   250   0.347E-03
  46 F= -.12942874E+03 E0= -.12942874E+03  d E =-.427470E-03
damped:  g(F)=  0.000E+00 g(S)=  0.000E+00 dE (1.order)= 0.000E+00
 bond charge predicted
       N       E                     dE             d eps       ncg     rms          rms(c)
DAV:   1    -0.129428575866E+03    0.16182E-03   -0.24315E-02   356   0.789E-01    0.531E-02
DAV:   2    -0.129428645786E+03   -0.69920E-04   -0.10907E-03   387   0.143E-01    0.298E-02
DAV:   3    -0.129428632905E+03    0.12881E-04   -0.25865E-05   296   0.277E-02    0.171E-02
DAV:   4    -0.129428624725E+03    0.81806E-05   -0.24422E-05   264   0.248E-02    0.360E-03
DAV:   5    -0.129428625122E+03   -0.39732E-06   -0.50693E-06   304   0.112E-02    0.214E-03
DAV:   6    -0.129428626551E+03   -0.14288E-05   -0.74347E-07   200   0.449E-03
  47 F= -.12942863E+03 E0= -.12942863E+03  d E =0.112918E-03
damped:  g(F)=  0.000E+00 g(S)=  0.000E+00 dE (1.order)= 0.000E+00
 bond charge predicted
       N       E                     dE             d eps       ncg     rms          rms(c)
DAV:   1    -0.129428700113E+03   -0.74991E-04   -0.44191E-04   391   0.106E-01    0.742E-03
DAV:   2    -0.129428703351E+03   -0.32375E-05   -0.16364E-05   252   0.188E-02    0.391E-03
DAV:   3    -0.129428705363E+03   -0.20124E-05   -0.19346E-06   252   0.645E-03    0.198E-03
DAV:   4    -0.129428707651E+03   -0.22875E-05   -0.41056E-07   258   0.297E-03    0.609E-04
DAV:   5    -0.129428709130E+03   -0.14795E-05   -0.11423E-07   271   0.147E-03    0.255E-04
DAV:   6    -0.129428709869E+03   -0.73855E-06   -0.16180E-08   202   0.718E-04
  48 F= -.12942871E+03 E0= -.12942871E+03  d E =-.833180E-04
damped:  g(F)=  0.000E+00 g(S)=  0.000E+00 dE (1.order)= 0.000E+00
 bond charge predicted
       N       E                     dE             d eps       ncg     rms          rms(c)
DAV:   1    -0.129428804137E+03   -0.95007E-04   -0.14734E-03   364   0.194E-01    0.132E-02
DAV:   2    -0.129428808818E+03   -0.46812E-05   -0.60329E-05   250   0.353E-02    0.716E-03
DAV:   3    -0.129428809204E+03   -0.38531E-06   -0.52639E-06   285   0.101E-02    0.409E-03
DAV:   4    -0.129428809679E+03   -0.47530E-06   -0.20169E-06   256   0.649E-03    0.980E-04
DAV:   5    -0.129428809922E+03   -0.24296E-06   -0.37232E-07   272   0.314E-03    0.526E-04
DAV:   6    -0.129428810075E+03   -0.15331E-06   -0.61942E-08   224   0.134E-03
  49 F= -.12942881E+03 E0= -.12942881E+03  d E =-.100206E-03
damped:  g(F)=  0.000E+00 g(S)=  0.000E+00 dE (1.order)= 0.000E+00
 bond charge predicted
       N       E                     dE             d eps       ncg     rms          rms(c)
DAV:   1    -0.129428867456E+03   -0.57534E-04   -0.23306E-03   379   0.246E-01    0.164E-02
DAV:   2    -0.129428873095E+03   -0.56384E-05   -0.95615E-05   236   0.446E-02    0.902E-03
DAV:   3    -0.129428872354E+03    0.74097E-06   -0.74685E-06   272   0.128E-02    0.516E-03
DAV:   4    -0.129428871451E+03    0.90270E-06   -0.35626E-06   200   0.885E-03    0.124E-03
DAV:   5    -0.129428871378E+03    0.72882E-07   -0.84319E-07   272   0.443E-03    0.676E-04
DAV:   6    -0.129428871432E+03   -0.53938E-07   -0.21708E-07   218   0.204E-03
  50 F= -.12942887E+03 E0= -.12942887E+03  d E =-.613570E-04
damped:  g(F)=  0.000E+00 g(S)=  0.000E+00 dE (1.order)= 0.000E+00
 bond charge predicted
       N       E                     dE             d eps       ncg     rms          rms(c)
DAV:   1    -0.129428873247E+03   -0.18692E-05   -0.21511E-03   376   0.240E-01    0.152E-02
DAV:   2    -0.129428878432E+03   -0.51845E-05   -0.87894E-05   268   0.433E-02    0.865E-03
DAV:   3    -0.129428877725E+03    0.70739E-06   -0.69099E-06   238   0.122E-02    0.501E-03
DAV:   4    -0.129428876953E+03    0.77107E-06   -0.33369E-06   226   0.857E-03    0.124E-03
DAV:   5    -0.129428876988E+03   -0.34832E-07   -0.80571E-07   227   0.433E-03    0.666E-04
DAV:   6    -0.129428877154E+03   -0.16620E-06   -0.22083E-07   183   0.200E-03
  51 F= -.12942888E+03 E0= -.12942888E+03  d E =-.572237E-05
damped:  g(F)=  0.000E+00 g(S)=  0.000E+00 dE (1.order)= 0.000E+00
 bond charge predicted
       N       E                     dE             d eps       ncg     rms          rms(c)
DAV:   1    -0.129428881360E+03   -0.43715E-05   -0.45269E-06   245   0.111E-02    0.692E-04
DAV:   2    -0.129428881644E+03   -0.28377E-06   -0.33080E-07   199   0.317E-03    0.449E-04
DAV:   3    -0.129428881934E+03   -0.29041E-06   -0.31042E-08   203   0.103E-03    0.283E-04
DAV:   4    -0.129428882421E+03   -0.48666E-06   -0.65686E-10   237   0.606E-04    0.916E-05
DAV:   5    -0.129428882735E+03   -0.31475E-06    0.11096E-08   219   0.367E-04    0.651E-05
DAV:   6    -0.129428883254E+03   -0.51856E-06    0.11692E-08   227   0.319E-04
  52 F= -.12942888E+03 E0= -.12942888E+03  d E =-.609949E-05
damped:  g(F)=  0.000E+00 g(S)=  0.000E+00 dE (1.order)= 0.000E+00
 bond charge predicted
       N       E                     dE             d eps       ncg     rms          rms(c)
DAV:   1    -0.129428890708E+03   -0.79726E-05   -0.17159E-05   248   0.216E-02    0.116E-03
DAV:   2    -0.129428890920E+03   -0.21189E-06   -0.12388E-06   224   0.598E-03    0.701E-04
DAV:   3    -0.129428891030E+03   -0.11020E-06   -0.13160E-07   216   0.178E-03    0.497E-04
DAV:   4    -0.129428891193E+03   -0.16249E-06   -0.25217E-08   224   0.980E-04    0.150E-04
DAV:   5    -0.129428891279E+03   -0.86412E-07    0.34252E-09   239   0.492E-04    0.880E-05
DAV:   6    -0.129428891334E+03   -0.54886E-07    0.13134E-08   192   0.306E-04
  53 F= -.12942889E+03 E0= -.12942889E+03  d E =-.807990E-05
damped:  g(F)=  0.000E+00 g(S)=  0.000E+00 dE (1.order)= 0.000E+00
 bond charge predicted
       N       E                     dE             d eps       ncg     rms          rms(c)
DAV:   1    -0.129428901008E+03   -0.97292E-05   -0.36005E-05   212   0.313E-02    0.169E-03
DAV:   2    -0.129428901230E+03   -0.22190E-06   -0.26253E-06   233   0.867E-03    0.101E-03
DAV:   3    -0.129428901266E+03   -0.36342E-07   -0.30820E-07   189   0.258E-03    0.719E-04
DAV:   4    -0.129428901281E+03   -0.14106E-07   -0.75723E-08   259   0.141E-03    0.225E-04
DAV:   5    -0.129428901291E+03   -0.10920E-07   -0.12260E-08   167   0.709E-04    0.130E-04
DAV:   6    -0.129428901301E+03   -0.95934E-08    0.87639E-09   170   0.442E-04
  54 F= -.12942890E+03 E0= -.12942890E+03  d E =-.996718E-05
damped:  g(F)=  0.000E+00 g(S)=  0.000E+00 dE (1.order)= 0.000E+00
 bond charge predicted
       N       E                     dE             d eps       ncg     rms          rms(c)
DAV:   1    -0.129428912482E+03   -0.11190E-04   -0.57936E-05   164   0.398E-02    0.212E-03
DAV:   2    -0.129428912813E+03   -0.33125E-06   -0.42199E-06   164   0.110E-02    0.127E-03
DAV:   3    -0.129428912843E+03   -0.30286E-07   -0.50595E-07   164   0.328E-03    0.905E-04
DAV:   4    -0.129428912826E+03    0.17067E-07   -0.13162E-07   244   0.179E-03    0.285E-04
DAV:   5    -0.129428912823E+03    0.32614E-08   -0.30150E-08   164   0.900E-04    0.165E-04
DAV:   6    -0.129428912828E+03   -0.49858E-08    0.29117E-09   164   0.563E-04
  55 F= -.12942891E+03 E0= -.12942891E+03  d E =-.115269E-04
damped:  g(F)=  0.000E+00 g(S)=  0.000E+00 dE (1.order)= 0.000E+00
 bond charge predicted
       N       E                     dE             d eps       ncg     rms          rms(c)
DAV:   1    -0.129428924642E+03   -0.11819E-04   -0.79159E-05   164   0.467E-02    0.244E-03
DAV:   2    -0.129428925088E+03   -0.44602E-06   -0.57372E-06   164   0.129E-02    0.146E-03
DAV:   3    -0.129428925119E+03   -0.31197E-07   -0.69438E-07   164   0.385E-03    0.104E-03
DAV:   4    -0.129428925081E+03    0.38669E-07   -0.18427E-07   164   0.208E-03    0.331E-04
DAV:   5    -0.129428925074E+03    0.71741E-08   -0.48210E-08   164   0.105E-03    0.191E-04
DAV:   6    -0.129428925083E+03   -0.97134E-08   -0.34147E-09   164   0.657E-04
  56 F= -.12942893E+03 E0= -.12942893E+03  d E =-.122554E-04
damped:  g(F)=  0.000E+00 g(S)=  0.000E+00 dE (1.order)= 0.000E+00
 bond charge predicted
       N       E                     dE             d eps       ncg     rms          rms(c)
DAV:   1    -0.129428937106E+03   -0.12032E-04   -0.97655E-05   196   0.517E-02    0.262E-03
DAV:   2    -0.129428937487E+03   -0.38074E-06   -0.55933E-06   176   0.127E-02    0.158E-03
DAV:   3    -0.129428937495E+03   -0.86598E-08   -0.57620E-07   164   0.391E-03    0.106E-03
DAV:   4    -0.129428937451E+03    0.44080E-07   -0.14183E-07   164   0.209E-03    0.275E-04
DAV:   5    -0.129428937454E+03   -0.28404E-08   -0.24995E-08   164   0.980E-04    0.171E-04
DAV:   6    -0.129428937472E+03   -0.18030E-07    0.60502E-09   164   0.532E-04
  57 F= -.12942894E+03 E0= -.12942894E+03  d E =-.123888E-04
damped:  g(F)=  0.000E+00 g(S)=  0.000E+00 dE (1.order)= 0.000E+00
 bond charge predicted
       N       E                     dE             d eps       ncg     rms          rms(c)
DAV:   1    -0.129428950748E+03   -0.13294E-04   -0.13309E-04   229   0.604E-02    0.296E-03
DAV:   2    -0.129428951127E+03   -0.37921E-06   -0.59626E-06   165   0.127E-02    0.179E-03
DAV:   3    -0.129428951135E+03   -0.73596E-08   -0.60162E-07   164   0.408E-03    0.112E-03
DAV:   4    -0.129428951108E+03    0.26746E-07   -0.14406E-07   164   0.211E-03    0.285E-04
DAV:   5    -0.129428951118E+03   -0.99053E-08   -0.25791E-08   164   0.104E-03    0.165E-04
DAV:   6    -0.129428951141E+03   -0.23282E-07    0.53807E-09   164   0.538E-04
  58 F= -.12942895E+03 E0= -.12942895E+03  d E =-.136688E-04
damped:  g(F)=  0.000E+00 g(S)=  0.000E+00 dE (1.order)= 0.000E+00
 bond charge predicted
       N       E                     dE             d eps       ncg     rms          rms(c)
DAV:   1    -0.129428966081E+03   -0.14963E-04   -0.16576E-04   229   0.680E-02    0.309E-03
DAV:   2    -0.129428966553E+03   -0.47217E-06   -0.69644E-06   164   0.139E-02    0.187E-03
DAV:   3    -0.129428966580E+03   -0.27641E-07   -0.70001E-07   164   0.447E-03    0.117E-03
DAV:   4    -0.129428966574E+03    0.63610E-08   -0.16373E-07   164   0.229E-03    0.286E-04
DAV:   5    -0.129428966590E+03   -0.15885E-07   -0.32107E-08   164   0.112E-03    0.173E-04
DAV:   6    -0.129428966616E+03   -0.26144E-07    0.32000E-09   164   0.578E-04
  59 F= -.12942897E+03 E0= -.12942897E+03  d E =-.154751E-04
damped:  g(F)=  0.000E+00 g(S)=  0.000E+00 dE (1.order)= 0.000E+00
 bond charge predicted
       N       E                     dE             d eps       ncg     rms          rms(c)
DAV:   1    -0.129428984836E+03   -0.18246E-04   -0.19761E-04   228   0.745E-02    0.311E-03
DAV:   2    -0.129428985388E+03   -0.55272E-06   -0.75424E-06   164   0.148E-02    0.187E-03
DAV:   3    -0.129428985446E+03   -0.57266E-07   -0.75206E-07   164   0.474E-03    0.118E-03
DAV:   4    -0.129428985477E+03   -0.31216E-07   -0.16943E-07   164   0.237E-03    0.265E-04
DAV:   5    -0.129428985498E+03   -0.21028E-07   -0.35273E-08   164   0.117E-03    0.173E-04
DAV:   6    -0.129428985525E+03   -0.27027E-07    0.17189E-09   164   0.598E-04
  60 F= -.12942899E+03 E0= -.12942899E+03  d E =-.189089E-04
damped:  g(F)=  0.000E+00 g(S)=  0.000E+00 dE (1.order)= 0.000E+00
 bond charge predicted
       N       E                     dE             d eps       ncg     rms          rms(c)
DAV:   1    -0.129429009573E+03   -0.24075E-04   -0.24338E-04   228   0.826E-02    0.327E-03
DAV:   2    -0.129429010240E+03   -0.66664E-06   -0.83575E-06   164   0.158E-02    0.190E-03
DAV:   3    -0.129429010338E+03   -0.97685E-07   -0.82664E-07   164   0.506E-03    0.118E-03
DAV:   4    -0.129429010415E+03   -0.77154E-07   -0.17841E-07   164   0.245E-03    0.245E-04
DAV:   5    -0.129429010439E+03   -0.24047E-07   -0.40872E-08   164   0.122E-03    0.171E-04
DAV:   6    -0.129429010461E+03   -0.22208E-07   -0.78191E-10   164   0.617E-04
  61 F= -.12942901E+03 E0= -.12942901E+03  d E =-.249360E-04
damped:  g(F)=  0.000E+00 g(S)=  0.000E+00 dE (1.order)= 0.000E+00
 bond charge predicted
       N       E                     dE             d eps       ncg     rms          rms(c)
DAV:   1    -0.129429043350E+03   -0.32911E-04   -0.33876E-04   260   0.969E-02    0.381E-03
DAV:   2    -0.129429043975E+03   -0.62512E-06   -0.82411E-06   174   0.144E-02    0.226E-03
DAV:   3    -0.129429044091E+03   -0.11650E-06   -0.82256E-07   164   0.490E-03    0.128E-03
DAV:   4    -0.129429044203E+03   -0.11149E-06   -0.19428E-07   166   0.247E-03    0.287E-04
DAV:   5    -0.129429044225E+03   -0.21740E-07   -0.48913E-08   164   0.125E-03    0.160E-04
DAV:   6    -0.129429044237E+03   -0.12495E-07   -0.50156E-09   164   0.621E-04
  62 F= -.12942904E+03 E0= -.12942904E+03  d E =-.337760E-04
damped:  g(F)=  0.000E+00 g(S)=  0.000E+00 dE (1.order)= 0.000E+00
 bond charge predicted
       N       E                     dE             d eps       ncg     rms          rms(c)
DAV:   1    -0.129429087287E+03   -0.43063E-04   -0.52590E-04   260   0.121E-01    0.475E-03
DAV:   2    -0.129429088320E+03   -0.10330E-05   -0.13597E-05   228   0.186E-02    0.296E-03
DAV:   3    -0.129429088469E+03   -0.14912E-06   -0.13883E-06   164   0.629E-03    0.179E-03
DAV:   4    -0.129429088605E+03   -0.13593E-06   -0.36618E-07   203   0.332E-03    0.457E-04
DAV:   5    -0.129429088615E+03   -0.10260E-07   -0.99968E-08   164   0.170E-03    0.243E-04
DAV:   6    -0.129429088626E+03   -0.10927E-07   -0.23686E-08   164   0.847E-04
  63 F= -.12942909E+03 E0= -.12942909E+03  d E =-.443893E-04
damped:  g(F)=  0.000E+00 g(S)=  0.000E+00 dE (1.order)= 0.000E+00
 bond charge predicted
       N       E                     dE             d eps       ncg     rms          rms(c)
DAV:   1    -0.129429141325E+03   -0.52710E-04   -0.85103E-04   260   0.155E-01    0.614E-03
DAV:   2    -0.129429143053E+03   -0.17278E-05   -0.23389E-05   237   0.245E-02    0.392E-03
DAV:   3    -0.129429143243E+03   -0.19024E-06   -0.24251E-06   211   0.824E-03    0.244E-03
DAV:   4    -0.129429143400E+03   -0.15700E-06   -0.68246E-07   244   0.448E-03    0.649E-04
DAV:   5    -0.129429143410E+03   -0.94228E-08   -0.19043E-07   165   0.229E-03    0.341E-04
DAV:   6    -0.129429143431E+03   -0.21318E-07   -0.56736E-08   164   0.116E-03
  64 F= -.12942914E+03 E0= -.12942914E+03  d E =-.548047E-04
damped:  g(F)=  0.000E+00 g(S)=  0.000E+00 dE (1.order)= 0.000E+00
 bond charge predicted
       N       E                     dE             d eps       ncg     rms          rms(c)
DAV:   1    -0.129429205488E+03   -0.62079E-04   -0.13404E-03   324   0.194E-01    0.785E-03
DAV:   2    -0.129429207678E+03   -0.21897E-05   -0.31340E-05   220   0.269E-02    0.500E-03
DAV:   3    -0.129429207866E+03   -0.18814E-06   -0.30447E-06   212   0.880E-03    0.294E-03
DAV:   4    -0.129429208115E+03   -0.24852E-06   -0.90648E-07   219   0.489E-03    0.736E-04
DAV:   5    -0.129429208135E+03   -0.20632E-07   -0.25921E-07   165   0.247E-03    0.362E-04
DAV:   6    -0.129429208174E+03   -0.38035E-07   -0.79455E-08   164   0.124E-03
  65 F= -.12942921E+03 E0= -.12942921E+03  d E =-.647426E-04
damped:  g(F)=  0.000E+00 g(S)=  0.000E+00 dE (1.order)= 0.000E+00
 bond charge predicted
       N       E                     dE             d eps       ncg     rms          rms(c)
DAV:   1    -0.129429281940E+03   -0.73805E-04   -0.20280E-03   328   0.237E-01    0.933E-03
DAV:   2    -0.129429285097E+03   -0.31571E-05   -0.44550E-05   200   0.318E-02    0.587E-03
DAV:   3    -0.129429285457E+03   -0.35941E-06   -0.41956E-06   164   0.103E-02    0.339E-03
DAV:   4    -0.129429285947E+03   -0.49042E-06   -0.11879E-06   201   0.561E-03    0.797E-04
DAV:   5    -0.129429286004E+03   -0.56813E-07   -0.35599E-07   164   0.283E-03    0.407E-04
DAV:   6    -0.129429286062E+03   -0.57812E-07   -0.11101E-07   165   0.140E-03
  66 F= -.12942929E+03 E0= -.12942929E+03  d E =-.778882E-04
damped:  g(F)=  0.000E+00 g(S)=  0.000E+00 dE (1.order)= 0.000E+00
 bond charge predicted
       N       E                     dE             d eps       ncg     rms          rms(c)
DAV:   1    -0.129429378842E+03   -0.92838E-04   -0.31528E-03   328   0.294E-01    0.114E-02
DAV:   2    -0.129429383762E+03   -0.49193E-05   -0.67774E-05   232   0.383E-02    0.707E-03
DAV:   3    -0.129429384231E+03   -0.46941E-06   -0.42587E-06   175   0.988E-03    0.404E-03
DAV:   4    -0.129429385140E+03   -0.90878E-06   -0.15924E-06   270   0.637E-03    0.804E-04
DAV:   5    -0.129429385234E+03   -0.93949E-07   -0.49745E-07   164   0.316E-03    0.492E-04
DAV:   6    -0.129429385299E+03   -0.65503E-07   -0.15054E-07   202   0.146E-03
  67 F= -.12942939E+03 E0= -.12942939E+03  d E =-.992375E-04
damped:  g(F)=  0.000E+00 g(S)=  0.000E+00 dE (1.order)= 0.000E+00
 bond charge predicted
       N       E                     dE             d eps       ncg     rms          rms(c)
DAV:   1    -0.129429501306E+03   -0.11607E-03   -0.51860E-03   347   0.376E-01    0.148E-02
DAV:   2    -0.129429509411E+03   -0.81046E-05   -0.11244E-04   286   0.494E-02    0.904E-03
DAV:   3    -0.129429510138E+03   -0.72746E-06   -0.70223E-06   256   0.127E-02    0.509E-03
DAV:   4    -0.129429511473E+03   -0.13346E-05   -0.25457E-06   262   0.809E-03    0.942E-04
DAV:   5    -0.129429511589E+03   -0.11602E-06   -0.78043E-07   222   0.393E-03    0.586E-04
DAV:   6    -0.129429511643E+03   -0.54008E-07   -0.23677E-07   174   0.185E-03
  68 F= -.12942951E+03 E0= -.12942951E+03  d E =-.126344E-03
damped:  g(F)=  0.000E+00 g(S)=  0.000E+00 dE (1.order)= 0.000E+00
 bond charge predicted
       N       E                     dE             d eps       ncg     rms          rms(c)
DAV:   1    -0.129429647929E+03   -0.13634E-03   -0.85690E-03   328   0.483E-01    0.191E-02
DAV:   2    -0.129429661205E+03   -0.13276E-04   -0.18581E-04   268   0.637E-02    0.117E-02
DAV:   3    -0.129429662221E+03   -0.10163E-05   -0.11713E-05   237   0.164E-02    0.658E-03
DAV:   4    -0.129429664144E+03   -0.19235E-05   -0.42610E-06   253   0.105E-02    0.121E-03
DAV:   5    -0.129429664304E+03   -0.15926E-06   -0.12777E-06   240   0.508E-03    0.741E-04
DAV:   6    -0.129429664389E+03   -0.85054E-07   -0.38652E-07   192   0.241E-03
  69 F= -.12942966E+03 E0= -.12942966E+03  d E =-.152746E-03
damped:  g(F)=  0.000E+00 g(S)=  0.000E+00 dE (1.order)= 0.000E+00
 bond charge predicted
       N       E                     dE             d eps       ncg     rms          rms(c)
DAV:   1    -0.129429824829E+03   -0.16053E-03   -0.13768E-02   327   0.611E-01    0.242E-02
DAV:   2    -0.129429846382E+03   -0.21553E-04   -0.29578E-04   300   0.790E-02    0.149E-02
DAV:   3    -0.129429847383E+03   -0.10018E-05   -0.13118E-05   219   0.188E-02    0.838E-03
DAV:   4    -0.129429850306E+03   -0.29222E-05   -0.54877E-06   235   0.130E-02    0.150E-03
DAV:   5    -0.129429850539E+03   -0.23373E-06   -0.14339E-06   217   0.598E-03    0.867E-04
DAV:   6    -0.129429850661E+03   -0.12155E-06   -0.31821E-07   172   0.254E-03
  70 F= -.12942985E+03 E0= -.12942985E+03  d E =-.186272E-03
damped:  g(F)=  0.000E+00 g(S)=  0.000E+00 dE (1.order)= 0.000E+00
 bond charge predicted
       N       E                     dE             d eps       ncg     rms          rms(c)
DAV:   1    -0.129430045831E+03   -0.19529E-03   -0.22484E-02   330   0.780E-01    0.310E-02
DAV:   2    -0.129430081392E+03   -0.35561E-04   -0.48057E-04   315   0.997E-02    0.200E-02
DAV:   3    -0.129430081325E+03    0.67337E-07   -0.13602E-05   236   0.209E-02    0.114E-02
DAV:   4    -0.129430086302E+03   -0.49774E-05   -0.93002E-06   236   0.169E-02    0.211E-03
DAV:   5    -0.129430086581E+03   -0.27882E-06   -0.23507E-06   229   0.783E-03    0.127E-03
DAV:   6    -0.129430086753E+03   -0.17215E-06   -0.43752E-07   172   0.296E-03
  71 F= -.12943009E+03 E0= -.12943009E+03  d E =-.236092E-03
damped:  g(F)=  0.000E+00 g(S)=  0.000E+00 dE (1.order)= 0.000E+00
 bond charge predicted
       N       E                     dE             d eps       ncg     rms          rms(c)
DAV:   1    -0.129430310174E+03   -0.22359E-03   -0.37619E-02   330   0.101E+00    0.404E-02
DAV:   2    -0.129430370233E+03   -0.60059E-04   -0.81048E-04   396   0.129E-01    0.267E-02
DAV:   3    -0.129430368127E+03    0.21063E-05   -0.14210E-05   236   0.231E-02    0.154E-02
DAV:   4    -0.129430375951E+03   -0.78249E-05   -0.16419E-05   257   0.214E-02    0.325E-03
DAV:   5    -0.129430376210E+03   -0.25805E-06   -0.36484E-06   264   0.104E-02    0.164E-03
DAV:   6    -0.129430376391E+03   -0.18106E-06   -0.45511E-07   192   0.340E-03
  72 F= -.12943038E+03 E0= -.12943038E+03  d E =-.289638E-03
damped:  g(F)=  0.000E+00 g(S)=  0.000E+00 dE (1.order)= 0.000E+00
 bond charge predicted
       N       E                     dE             d eps       ncg     rms          rms(c)
DAV:   1    -0.129430622574E+03   -0.24636E-03   -0.62279E-02   333   0.130E+00    0.520E-02
DAV:   2    -0.129430718063E+03   -0.95488E-04   -0.12975E-03   356   0.164E-01    0.340E-02
DAV:   3    -0.129430716398E+03    0.16649E-05   -0.24778E-05   203   0.299E-02    0.194E-02
DAV:   4    -0.129430728813E+03   -0.12415E-04   -0.27729E-05   266   0.278E-02    0.407E-03
DAV:   5    -0.129430729133E+03   -0.32008E-06   -0.60864E-06   238   0.131E-02    0.220E-03
DAV:   6    -0.129430729390E+03   -0.25706E-06   -0.72164E-07   200   0.423E-03
  73 F= -.12943073E+03 E0= -.12943073E+03  d E =-.352999E-03
damped:  g(F)=  0.000E+00 g(S)=  0.000E+00 dE (1.order)= 0.000E+00
 bond charge predicted
       N       E                     dE             d eps       ncg     rms          rms(c)
DAV:   1    -0.129430987721E+03   -0.25859E-03   -0.10071E-01   331   0.165E+00    0.664E-02
DAV:   2    -0.129431141285E+03   -0.15356E-03   -0.20893E-03   347   0.208E-01    0.428E-02
DAV:   3    -0.129431140003E+03    0.12827E-05   -0.42751E-05   235   0.371E-02    0.240E-02
DAV:   4    -0.129431157795E+03   -0.17792E-04   -0.35780E-05   267   0.332E-02    0.421E-03
DAV:   5    -0.129431158441E+03   -0.64634E-06   -0.79402E-06   255   0.150E-02    0.256E-03
DAV:   6    -0.129431158820E+03   -0.37808E-06   -0.90928E-07   226   0.497E-03
  74 F= -.12943116E+03 E0= -.12943116E+03  d E =-.429430E-03
damped:  g(F)=  0.000E+00 g(S)=  0.000E+00 dE (1.order)= 0.000E+00
 bond charge predicted
       N       E                     dE             d eps       ncg     rms          rms(c)
DAV:   1    -0.129431408787E+03   -0.25035E-03   -0.15043E-01   332   0.201E+00    0.808E-02
DAV:   2    -0.129431639833E+03   -0.23105E-03   -0.31143E-03   347   0.254E-01    0.524E-02
DAV:   3    -0.129431637422E+03    0.24110E-05   -0.64352E-05   233   0.455E-02    0.294E-02
DAV:   4    -0.129431663126E+03   -0.25704E-04   -0.53235E-05   268   0.404E-02    0.522E-03
DAV:   5    -0.129431664073E+03   -0.94682E-06   -0.11958E-05   244   0.185E-02    0.311E-03
DAV:   6    -0.129431664646E+03   -0.57264E-06   -0.13880E-06   233   0.602E-03
  75 F= -.12943166E+03 E0= -.12943166E+03  d E =-.505826E-03
damped:  g(F)=  0.000E+00 g(S)=  0.000E+00 dE (1.order)= 0.000E+00
 bond charge predicted
       N       E                     dE             d eps       ncg     rms          rms(c)
DAV:   1    -0.129431894792E+03   -0.23072E-03   -0.20645E-01   330   0.236E+00    0.938E-02
DAV:   2    -0.129432227668E+03   -0.33288E-03   -0.44234E-03   331   0.302E-01    0.619E-02
DAV:   3    -0.129432221928E+03    0.57407E-05   -0.96531E-05   340   0.545E-02    0.357E-02
DAV:   4    -0.129432258177E+03   -0.36249E-04   -0.77128E-05   243   0.494E-02    0.654E-03
DAV:   5    -0.129432259405E+03   -0.12280E-05   -0.17833E-05   263   0.227E-02    0.373E-03
DAV:   6    -0.129432260197E+03   -0.79191E-06   -0.20071E-06   210   0.711E-03
  76 F= -.12943226E+03 E0= -.12943226E+03  d E =-.595551E-03
damped:  g(F)=  0.000E+00 g(S)=  0.000E+00 dE (1.order)= 0.000E+00
 bond charge predicted
       N       E                     dE             d eps       ncg     rms          rms(c)
DAV:   1    -0.129432436853E+03   -0.17745E-03   -0.25162E-01   330   0.261E+00    0.102E-01
DAV:   2    -0.129432876568E+03   -0.43972E-03   -0.57368E-03   364   0.342E-01    0.659E-02
DAV:   3    -0.129432872452E+03    0.41161E-05   -0.11237E-04   307   0.571E-02    0.384E-02
DAV:   4    -0.129432917065E+03   -0.44613E-04   -0.92469E-05   291   0.554E-02    0.697E-03
DAV:   5    -0.129432919093E+03   -0.20273E-05   -0.21044E-05   272   0.244E-02    0.438E-03
DAV:   6    -0.129432920357E+03   -0.12648E-05   -0.26509E-06   268   0.822E-03
  77 F= -.12943292E+03 E0= -.12943292E+03  d E =-.660161E-03
damped:  g(F)=  0.000E+00 g(S)=  0.000E+00 dE (1.order)= 0.000E+00
 bond charge predicted
       N       E                     dE             d eps       ncg     rms          rms(c)
DAV:   1    -0.129432941861E+03   -0.22768E-04   -0.54604E-04   390   0.120E-01    0.648E-03
DAV:   2    -0.129432944219E+03   -0.23586E-05   -0.16610E-05   209   0.191E-02    0.389E-03
DAV:   3    -0.129432945416E+03   -0.11974E-05   -0.21833E-06   269   0.664E-03    0.211E-03
DAV:   4    -0.129432947008E+03   -0.15916E-05   -0.37982E-07   249   0.318E-03    0.573E-04
DAV:   5    -0.129432948040E+03   -0.10315E-05   -0.92353E-08   264   0.158E-03    0.244E-04
DAV:   6    -0.129432948678E+03   -0.63827E-06   -0.17651E-08   232   0.810E-04
  78 F= -.12943295E+03 E0= -.12943295E+03  d E =-.283204E-04
damped:  g(F)=  0.000E+00 g(S)=  0.000E+00 dE (1.order)= 0.000E+00
 bond charge predicted
       N       E                     dE             d eps       ncg     rms          rms(c)
DAV:   1    -0.129432966766E+03   -0.18727E-04   -0.14472E-03   373   0.197E-01    0.978E-03
DAV:   2    -0.129432969952E+03   -0.31855E-05   -0.39891E-05   219   0.300E-02    0.609E-03
DAV:   3    -0.129432970369E+03   -0.41767E-06   -0.45439E-06   263   0.104E-02    0.330E-03
DAV:   4    -0.129432970897E+03   -0.52737E-06   -0.13617E-06   210   0.563E-03    0.875E-04
DAV:   5    -0.129432971204E+03   -0.30679E-06   -0.38205E-07   288   0.291E-03    0.410E-04
DAV:   6    -0.129432971405E+03   -0.20148E-06   -0.78818E-08   236   0.141E-03
  79 F= -.12943297E+03 E0= -.12943297E+03  d E =-.227271E-04
damped:  g(F)=  0.000E+00 g(S)=  0.000E+00 dE (1.order)= 0.000E+00
 bond charge predicted
       N       E                     dE             d eps       ncg     rms          rms(c)
DAV:   1    -0.129432988839E+03   -0.17636E-04   -0.18933E-03   389   0.225E-01    0.922E-03
DAV:   2    -0.129432991347E+03   -0.25084E-05   -0.36522E-05   255   0.295E-02    0.594E-03
DAV:   3    -0.129432991638E+03   -0.29044E-06   -0.41038E-06   268   0.102E-02    0.321E-03
DAV:   4    -0.129432991933E+03   -0.29463E-06   -0.12639E-06   238   0.555E-03    0.737E-04
DAV:   5    -0.129432992033E+03   -0.10058E-06   -0.34165E-07   218   0.278E-03    0.393E-04
DAV:   6    -0.129432992141E+03   -0.10752E-06   -0.10323E-07   229   0.138E-03
  80 F= -.12943299E+03 E0= -.12943299E+03  d E =-.207356E-04
damped:  g(F)=  0.000E+00 g(S)=  0.000E+00 dE (1.order)= 0.000E+00
 bond charge predicted
       N       E                     dE             d eps       ncg     rms          rms(c)
DAV:   1    -0.129433031119E+03   -0.39086E-04   -0.26980E-03   345   0.266E-01    0.103E-02
DAV:   2    -0.129433034091E+03   -0.29723E-05   -0.43417E-05   235   0.323E-02    0.645E-03
DAV:   3    -0.129433034758E+03   -0.66697E-06   -0.46877E-06   202   0.110E-02    0.330E-03
DAV:   4    -0.129433035399E+03   -0.64090E-06   -0.13340E-06   237   0.565E-03    0.629E-04
DAV:   5    -0.129433035552E+03   -0.15323E-06   -0.39933E-07   221   0.275E-03    0.373E-04
DAV:   6    -0.129433035649E+03   -0.96662E-07   -0.13100E-07   225   0.133E-03
  81 F= -.12943304E+03 E0= -.12943304E+03  d E =-.435082E-04
damped:  g(F)=  0.000E+00 g(S)=  0.000E+00 dE (1.order)= 0.000E+00
 bond charge predicted
       N       E                     dE             d eps       ncg     rms          rms(c)
DAV:   1    -0.129433086704E+03   -0.51152E-04   -0.43678E-03   341   0.341E-01    0.138E-02
DAV:   2    -0.129433092660E+03   -0.59566E-05   -0.88033E-05   267   0.447E-02    0.873E-03
DAV:   3    -0.129433093081E+03   -0.42098E-06   -0.66294E-06   264   0.120E-02    0.487E-03
DAV:   4    -0.129433093716E+03   -0.63424E-06   -0.26452E-06   219   0.784E-03    0.949E-04
DAV:   5    -0.129433093764E+03   -0.48140E-07   -0.77142E-07   256   0.389E-03    0.604E-04
DAV:   6    -0.129433093809E+03   -0.44925E-07   -0.23708E-07   185   0.179E-03
  82 F= -.12943309E+03 E0= -.12943309E+03  d E =-.581598E-04
damped:  g(F)=  0.000E+00 g(S)=  0.000E+00 dE (1.order)= 0.000E+00
 bond charge predicted
       N       E                     dE             d eps       ncg     rms          rms(c)
DAV:   1    -0.129433142691E+03   -0.48927E-04   -0.58528E-03   338   0.395E-01    0.155E-02
DAV:   2    -0.129433150482E+03   -0.77909E-05   -0.11590E-04   268   0.513E-02    0.981E-03
DAV:   3    -0.129433150923E+03   -0.44129E-06   -0.84754E-06   256   0.136E-02    0.549E-03
DAV:   4    -0.129433151762E+03   -0.83910E-06   -0.33300E-06   225   0.881E-03    0.104E-03
DAV:   5    -0.129433151896E+03   -0.13344E-06   -0.99686E-07   220   0.435E-03    0.682E-04
DAV:   6    -0.129433152017E+03   -0.12094E-06   -0.31041E-07   165   0.201E-03
  83 F= -.12943315E+03 E0= -.12943315E+03  d E =-.582079E-04
damped:  g(F)=  0.000E+00 g(S)=  0.000E+00 dE (1.order)= 0.000E+00
 bond charge predicted
       N       E                     dE             d eps       ncg     rms          rms(c)
DAV:   1    -0.129433223526E+03   -0.71631E-04   -0.83952E-03   329   0.473E-01    0.175E-02
DAV:   2    -0.129433234480E+03   -0.10954E-04   -0.15240E-04   267   0.590E-02    0.111E-02
DAV:   3    -0.129433235585E+03   -0.11051E-05   -0.10721E-05   200   0.153E-02    0.622E-03
DAV:   4    -0.129433237500E+03   -0.19147E-05   -0.42148E-06   260   0.993E-03    0.112E-03
DAV:   5    -0.129433237777E+03   -0.27723E-06   -0.13376E-06   200   0.482E-03    0.766E-04
DAV:   6    -0.129433237929E+03   -0.15199E-06   -0.42967E-07   164   0.220E-03
  84 F= -.12943324E+03 E0= -.12943324E+03  d E =-.859124E-04
damped:  g(F)=  0.000E+00 g(S)=  0.000E+00 dE (1.order)= 0.000E+00
 bond charge predicted
       N       E                     dE             d eps       ncg     rms          rms(c)
DAV:   1    -0.129433332105E+03   -0.94328E-04   -0.13036E-02   332   0.594E-01    0.219E-02
DAV:   2    -0.129433352572E+03   -0.20467E-04   -0.27475E-04   300   0.770E-02    0.146E-02
DAV:   3    -0.129433352850E+03   -0.27852E-06   -0.12168E-05   272   0.180E-02    0.872E-03
DAV:   4    -0.129433355391E+03   -0.25407E-05   -0.65598E-06   201   0.140E-02    0.172E-03
DAV:   5    -0.129433355533E+03   -0.14226E-06   -0.17568E-06   272   0.639E-03    0.113E-03
DAV:   6    -0.129433355646E+03   -0.11290E-06   -0.42269E-07   186   0.274E-03
  85 F= -.12943336E+03 E0= -.12943336E+03  d E =-.117717E-03
damped:  g(F)=  0.000E+00 g(S)=  0.000E+00 dE (1.order)= 0.000E+00
 bond charge predicted
       N       E                     dE             d eps       ncg     rms          rms(c)
DAV:   1    -0.129433463244E+03   -0.10771E-03   -0.19316E-02   332   0.722E-01    0.259E-02
DAV:   2    -0.129433494442E+03   -0.31197E-04   -0.41233E-04   300   0.934E-02    0.170E-02
DAV:   3    -0.129433495093E+03   -0.65133E-06   -0.16695E-05   212   0.211E-02    0.102E-02
DAV:   4    -0.129433499278E+03   -0.41846E-05   -0.84567E-06   235   0.162E-02    0.189E-03
DAV:   5    -0.129433499534E+03   -0.25622E-06   -0.24332E-06   202   0.737E-03    0.133E-03
DAV:   6    -0.129433499719E+03   -0.18510E-06   -0.59833E-07   165   0.317E-03
  86 F= -.12943350E+03 E0= -.12943350E+03  d E =-.144073E-03
damped:  g(F)=  0.000E+00 g(S)=  0.000E+00 dE (1.order)= 0.000E+00
 bond charge predicted
       N       E                     dE             d eps       ncg     rms          rms(c)
DAV:   1    -0.129433637581E+03   -0.13805E-03   -0.28888E-02   331   0.881E-01    0.317E-02
DAV:   2    -0.129433690219E+03   -0.52639E-04   -0.67635E-04   396   0.116E-01    0.210E-02
DAV:   3    -0.129433688654E+03    0.15647E-05   -0.80046E-06   236   0.171E-02    0.126E-02
DAV:   4    -0.129433695179E+03   -0.65243E-05   -0.11432E-05   260   0.186E-02    0.231E-03
DAV:   5    -0.129433695508E+03   -0.32903E-06   -0.23744E-06   272   0.810E-03    0.148E-03
DAV:   6    -0.129433695672E+03   -0.16446E-06   -0.24511E-07   202   0.262E-03
  87 F= -.12943370E+03 E0= -.12943370E+03  d E =-.195953E-03
damped:  g(F)=  0.000E+00 g(S)=  0.000E+00 dE (1.order)= 0.000E+00
 bond charge predicted
       N       E                     dE             d eps       ncg     rms          rms(c)
DAV:   1    -0.129433843856E+03   -0.14835E-03   -0.43085E-02   334   0.107E+00    0.384E-02
DAV:   2    -0.129433924593E+03   -0.80738E-04   -0.10280E-03   395   0.142E-01    0.255E-02
DAV:   3    -0.129433921814E+03    0.27798E-05   -0.11957E-05   228   0.209E-02    0.155E-02
DAV:   4    -0.129433931583E+03   -0.97696E-05   -0.16809E-05   267   0.228E-02    0.289E-03
DAV:   5    -0.129433932182E+03   -0.59864E-06   -0.36152E-06   248   0.100E-02    0.178E-03
DAV:   6    -0.129433932462E+03   -0.27991E-06   -0.36888E-07   208   0.316E-03
  88 F= -.12943393E+03 E0= -.12943393E+03  d E =-.236789E-03
damped:  g(F)=  0.000E+00 g(S)=  0.000E+00 dE (1.order)= 0.000E+00
 bond charge predicted
       N       E                     dE             d eps       ncg     rms          rms(c)
DAV:   1    -0.129434105000E+03   -0.17282E-03   -0.63331E-02   333   0.131E+00    0.466E-02
DAV:   2    -0.129434228529E+03   -0.12353E-03   -0.15546E-03   361   0.175E-01    0.320E-02
DAV:   3    -0.129434223455E+03    0.50736E-05   -0.20062E-05   272   0.271E-02    0.199E-02
DAV:   4    -0.129434238360E+03   -0.14905E-04   -0.28957E-05   232   0.295E-02    0.440E-03
DAV:   5    -0.129434239048E+03   -0.68752E-06   -0.68629E-06   272   0.139E-02    0.229E-03
DAV:   6    -0.129434239388E+03   -0.34012E-06   -0.82928E-07   191   0.444E-03
  89 F= -.12943424E+03 E0= -.12943424E+03  d E =-.306926E-03
damped:  g(F)=  0.000E+00 g(S)=  0.000E+00 dE (1.order)= 0.000E+00
 bond charge predicted
       N       E                     dE             d eps       ncg     rms          rms(c)
DAV:   1    -0.129434407271E+03   -0.16822E-03   -0.97425E-02   328   0.162E+00    0.577E-02
DAV:   2    -0.129434596014E+03   -0.18874E-03   -0.23677E-03   379   0.215E-01    0.386E-02
DAV:   3    -0.129434589526E+03    0.64879E-05   -0.27990E-05   208   0.321E-02    0.235E-02
DAV:   4    -0.129434611385E+03   -0.21859E-04   -0.39307E-05   292   0.346E-02    0.470E-03
DAV:   5    -0.129434612495E+03   -0.11106E-05   -0.84099E-06   254   0.153E-02    0.273E-03
DAV:   6    -0.129434612897E+03   -0.40191E-06   -0.89770E-07   200   0.477E-03
  90 F= -.12943461E+03 E0= -.12943461E+03  d E =-.373509E-03
damped:  g(F)=  0.000E+00 g(S)=  0.000E+00 dE (1.order)= 0.000E+00
 bond charge predicted
       N       E                     dE             d eps       ncg     rms          rms(c)
DAV:   1    -0.129434732813E+03   -0.12032E-03   -0.15233E-01   332   0.202E+00    0.725E-02
DAV:   2    -0.129435028950E+03   -0.29614E-03   -0.37061E-03   338   0.269E-01    0.483E-02
DAV:   3    -0.129435021645E+03    0.73049E-05   -0.68238E-05   315   0.418E-02    0.293E-02
DAV:   4    -0.129435052897E+03   -0.31252E-04   -0.51481E-05   259   0.434E-02    0.532E-03
DAV:   5    -0.129435054533E+03   -0.16365E-05   -0.13346E-05   264   0.191E-02    0.374E-03
DAV:   6    -0.129435055438E+03   -0.90498E-06   -0.15757E-06   216   0.652E-03
  91 F= -.12943506E+03 E0= -.12943506E+03  d E =-.442541E-03
damped:  g(F)=  0.000E+00 g(S)=  0.000E+00 dE (1.order)= 0.000E+00
 bond charge predicted
       N       E                     dE             d eps       ncg     rms          rms(c)
DAV:   1    -0.129435068759E+03   -0.14225E-04   -0.22242E-01   333   0.245E+00    0.885E-02
DAV:   2    -0.129435517955E+03   -0.44920E-03   -0.56359E-03   361   0.331E-01    0.615E-02
DAV:   3    -0.129435497339E+03    0.20616E-04   -0.82322E-05   336   0.521E-02    0.383E-02
DAV:   4    -0.129435543807E+03   -0.46468E-04   -0.84773E-05   268   0.532E-02    0.696E-03
DAV:   5    -0.129435546741E+03   -0.29336E-05   -0.19552E-05   272   0.232E-02    0.416E-03
DAV:   6    -0.129435547772E+03   -0.10309E-05   -0.22450E-06   236   0.741E-03
  92 F= -.12943555E+03 E0= -.12943555E+03  d E =-.492333E-03
damped:  g(F)=  0.000E+00 g(S)=  0.000E+00 dE (1.order)= 0.000E+00
 bond charge predicted
       N       E                     dE             d eps       ncg     rms          rms(c)
DAV:   1    -0.129435150442E+03    0.39630E-03   -0.34658E-01   329   0.303E+00    0.115E-01
DAV:   2    -0.129435891819E+03   -0.74138E-03   -0.93509E-03   339   0.428E-01    0.766E-02
DAV:   3    -0.129435860554E+03    0.31265E-04   -0.18069E-04   332   0.669E-02    0.469E-02
DAV:   4    -0.129435905325E+03   -0.44771E-04   -0.14407E-04   274   0.697E-02    0.824E-03
DAV:   5    -0.129435910001E+03   -0.46758E-05   -0.33632E-05   304   0.295E-02    0.651E-03
DAV:   6    -0.129435912502E+03   -0.25010E-05   -0.42458E-06   268   0.108E-02
  93 F= -.12943591E+03 E0= -.12943591E+03  d E =-.364731E-03
damped:  g(F)=  0.000E+00 g(S)=  0.000E+00 dE (1.order)= 0.000E+00
 bond charge predicted
       N       E                     dE             d eps       ncg     rms          rms(c)
DAV:   1    -0.129436153445E+03   -0.24344E-03   -0.14017E-02   360   0.586E-01    0.409E-02
DAV:   2    -0.129436198985E+03   -0.45540E-04   -0.59562E-04   368   0.104E-01    0.223E-02
DAV:   3    -0.129436196510E+03    0.24752E-05   -0.14617E-05   268   0.207E-02    0.123E-02
DAV:   4    -0.129436198359E+03   -0.18489E-05   -0.12731E-05   265   0.174E-02    0.242E-03
DAV:   5    -0.129436199628E+03   -0.12698E-05   -0.25363E-06   256   0.777E-03    0.145E-03
DAV:   6    -0.129436200533E+03   -0.90452E-06   -0.45578E-07   298   0.317E-03
  94 F= -.12943620E+03 E0= -.12943620E+03  d E =-.288031E-03
damped:  g(F)=  0.000E+00 g(S)=  0.000E+00 dE (1.order)= 0.000E+00
 bond charge predicted
       N       E                     dE             d eps       ncg     rms          rms(c)
DAV:   1    -0.129436011086E+03    0.18854E-03   -0.16565E-02   358   0.646E-01    0.430E-02
DAV:   2    -0.129436058564E+03   -0.47478E-04   -0.72213E-04   401   0.115E-01    0.246E-02
DAV:   3    -0.129436049153E+03    0.94111E-05   -0.17393E-05   296   0.225E-02    0.138E-02
DAV:   4    -0.129436043714E+03    0.54391E-05   -0.16342E-05   264   0.197E-02    0.286E-03
DAV:   5    -0.129436043333E+03    0.38030E-06   -0.32401E-06   272   0.903E-03    0.171E-03
DAV:   6    -0.129436043696E+03   -0.36294E-06   -0.56889E-07   202   0.379E-03
  95 F= -.12943604E+03 E0= -.12943604E+03  d E =0.156837E-03
damped:  g(F)=  0.000E+00 g(S)=  0.000E+00 dE (1.order)= 0.000E+00
 bond charge predicted
       N       E                     dE             d eps       ncg     rms          rms(c)
DAV:   1    -0.129436121294E+03   -0.77961E-04   -0.64679E-04   374   0.125E-01    0.888E-03
DAV:   2    -0.129436123993E+03   -0.26987E-05   -0.24167E-05   244   0.223E-02    0.466E-03
DAV:   3    -0.129436125209E+03   -0.12159E-05   -0.27778E-06   228   0.778E-03    0.226E-03
DAV:   4    -0.129436126674E+03   -0.14653E-05   -0.73291E-07   218   0.385E-03    0.680E-04
DAV:   5    -0.129436127688E+03   -0.10145E-05   -0.21905E-07   240   0.204E-03    0.302E-04
DAV:   6    -0.129436128187E+03   -0.49861E-06   -0.68366E-08   248   0.103E-03
  96 F= -.12943613E+03 E0= -.12943613E+03  d E =-.844907E-04
damped:  g(F)=  0.000E+00 g(S)=  0.000E+00 dE (1.order)= 0.000E+00
 bond charge predicted
       N       E                     dE             d eps       ncg     rms          rms(c)
DAV:   1    -0.129436216601E+03   -0.88912E-04   -0.20617E-03   343   0.225E-01    0.156E-02
DAV:   2    -0.129436222363E+03   -0.57623E-05   -0.86368E-05   313   0.402E-02    0.833E-03
DAV:   3    -0.129436221872E+03    0.49163E-06   -0.41350E-06   237   0.101E-02    0.458E-03
DAV:   4    -0.129436221569E+03    0.30271E-06   -0.22869E-06   276   0.707E-03    0.107E-03
DAV:   5    -0.129436221618E+03   -0.48927E-07   -0.49967E-07   264   0.356E-03    0.629E-04
DAV:   6    -0.129436221687E+03   -0.69442E-07   -0.90245E-08   256   0.152E-03
  97 F= -.12943622E+03 E0= -.12943622E+03  d E =-.935002E-04
damped:  g(F)=  0.000E+00 g(S)=  0.000E+00 dE (1.order)= 0.000E+00
 bond charge predicted
       N       E                     dE             d eps       ncg     rms          rms(c)
DAV:   1    -0.129436248583E+03   -0.26965E-04   -0.30265E-03   357   0.273E-01    0.186E-02
DAV:   2    -0.129436255023E+03   -0.64394E-05   -0.12077E-04   243   0.489E-02    0.994E-03
DAV:   3    -0.129436253673E+03    0.13500E-05   -0.96256E-06   255   0.141E-02    0.559E-03
DAV:   4    -0.129436252266E+03    0.14063E-05   -0.42700E-06   219   0.946E-03    0.132E-03
DAV:   5    -0.129436252274E+03   -0.74251E-08   -0.10405E-06   272   0.476E-03    0.753E-04
DAV:   6    -0.129436252461E+03   -0.18752E-06   -0.28006E-07   201   0.224E-03
  98 F= -.12943625E+03 E0= -.12943625E+03  d E =-.307740E-04
damped:  g(F)=  0.000E+00 g(S)=  0.000E+00 dE (1.order)= 0.000E+00
 bond charge predicted
       N       E                     dE             d eps       ncg     rms          rms(c)
DAV:   1    -0.129436254012E+03   -0.17379E-05   -0.13714E-06   238   0.620E-03    0.370E-04
DAV:   2    -0.129436254347E+03   -0.33552E-06   -0.10774E-07   220   0.188E-03    0.272E-04
DAV:   3    -0.129436254735E+03   -0.38791E-06   -0.11783E-08   203   0.726E-04    0.185E-04
DAV:   4    -0.129436255404E+03   -0.66847E-06   -0.33609E-09   233   0.528E-04    0.739E-05
DAV:   5    -0.129436255813E+03   -0.40977E-06    0.52065E-09   261   0.385E-04    0.659E-05
DAV:   6    -0.129436256565E+03   -0.75200E-06   -0.87769E-09   200   0.432E-04
  99 F= -.12943626E+03 E0= -.12943626E+03  d E =-.410408E-05
damped:  g(F)=  0.000E+00 g(S)=  0.000E+00 dE (1.order)= 0.000E+00
 bond charge predicted
       N       E                     dE             d eps       ncg     rms          rms(c)
DAV:   1    -0.129436258986E+03   -0.31723E-05   -0.50753E-06   244   0.119E-02    0.486E-04
DAV:   2    -0.129436259129E+03   -0.14295E-06   -0.32974E-07   272   0.326E-03    0.322E-04
DAV:   3    -0.129436259213E+03   -0.84531E-07   -0.28643E-08   192   0.960E-04    0.257E-04
DAV:   4    -0.129436259348E+03   -0.13477E-06    0.78094E-10   247   0.526E-04    0.859E-05
DAV:   5    -0.129436259420E+03   -0.72313E-07    0.88886E-09   216   0.281E-04    0.516E-05
DAV:   6    -0.129436259458E+03   -0.37472E-07    0.12819E-08   188   0.179E-04
 100 F= -.12943626E+03 E0= -.12943626E+03  d E =-.289236E-05
damped:  g(F)=  0.000E+00 g(S)=  0.000E+00 dE (1.order)= 0.000E+00
 bond charge predicted
       N       E                     dE             d eps       ncg     rms          rms(c)
DAV:   1    -0.129436262328E+03   -0.29075E-05   -0.11043E-05   192   0.176E-02    0.717E-04
DAV:   2    -0.129436262408E+03   -0.80106E-07   -0.71728E-07   165   0.478E-03    0.469E-04
DAV:   3    -0.129436262425E+03   -0.17481E-07   -0.73424E-08   164   0.140E-03    0.373E-04
DAV:   4    -0.129436262443E+03   -0.17261E-07   -0.86158E-09   180   0.756E-04    0.131E-04
DAV:   5    -0.129436262453E+03   -0.10303E-07    0.75533E-09   165   0.388E-04    0.757E-05
DAV:   6    -0.129436262459E+03   -0.66011E-08    0.13435E-08   164   0.239E-04
 101 F= -.12943626E+03 E0= -.12943626E+03  d E =-.300178E-05
damped:  g(F)=  0.000E+00 g(S)=  0.000E+00 dE (1.order)= 0.000E+00
 bond charge predicted
       N       E                     dE             d eps       ncg     rms          rms(c)
DAV:   1    -0.129436265965E+03   -0.35124E-05   -0.18798E-05   164   0.230E-02    0.919E-04
DAV:   2    -0.129436266078E+03   -0.11280E-06   -0.12131E-06   164   0.622E-03    0.597E-04
DAV:   3    -0.129436266091E+03   -0.12983E-07   -0.13332E-07   164   0.181E-03    0.477E-04
DAV:   4    -0.129436266093E+03   -0.25157E-08   -0.24581E-08   164   0.976E-04    0.168E-04
DAV:   5    -0.129436266093E+03    0.10914E-10    0.19618E-09   164   0.499E-04    0.963E-05
DAV:   6    -0.129436266094E+03   -0.57844E-09    0.11538E-08   164   0.307E-04
 102 F= -.12943627E+03 E0= -.12943627E+03  d E =-.363464E-05
damped:  g(F)=  0.000E+00 g(S)=  0.000E+00 dE (1.order)= 0.000E+00
 bond charge predicted
       N       E                     dE             d eps       ncg     rms          rms(c)
DAV:   1    -0.129436270108E+03   -0.40148E-05   -0.27862E-05   164   0.280E-02    0.109E-03
DAV:   2    -0.129436270271E+03   -0.16303E-06   -0.17742E-06   164   0.754E-03    0.704E-04
DAV:   3    -0.129436270289E+03   -0.18057E-07   -0.20091E-07   164   0.219E-03    0.564E-04
DAV:   4    -0.129436270293E+03   -0.34179E-08   -0.42104E-08   164   0.117E-03    0.198E-04
DAV:   5    -0.129436270293E+03   -0.45111E-09   -0.42489E-09   164   0.596E-04    0.112E-04
DAV:   6    -0.129436270294E+03   -0.12769E-08    0.93941E-09   164   0.365E-04
 103 F= -.12943627E+03 E0= -.12943627E+03  d E =-.420041E-05
damped:  g(F)=  0.000E+00 g(S)=  0.000E+00 dE (1.order)= 0.000E+00
 bond charge predicted
       N       E                     dE             d eps       ncg     rms          rms(c)
DAV:   1    -0.129436274700E+03   -0.44070E-05   -0.37856E-05   164   0.325E-02    0.125E-03
DAV:   2    -0.129436274919E+03   -0.21870E-06   -0.23669E-06   164   0.874E-03    0.791E-04
DAV:   3    -0.129436274945E+03   -0.25932E-07   -0.27188E-07   164   0.254E-03    0.634E-04
DAV:   4    -0.129436274951E+03   -0.60927E-08   -0.59913E-08   164   0.134E-03    0.221E-04
DAV:   5    -0.129436274953E+03   -0.17590E-08   -0.10503E-08   164   0.677E-04    0.124E-04
DAV:   6    -0.129436274955E+03   -0.25093E-08    0.70173E-09   164   0.410E-04
 104 F= -.12943627E+03 E0= -.12943627E+03  d E =-.466073E-05
damped:  g(F)=  0.000E+00 g(S)=  0.000E+00 dE (1.order)= 0.000E+00
 bond charge predicted
       N       E                     dE             d eps       ncg     rms          rms(c)
DAV:   1    -0.129436280204E+03   -0.52511E-05   -0.60633E-05   164   0.411E-02    0.155E-03
DAV:   2    -0.129436280547E+03   -0.34342E-06   -0.37063E-06   164   0.110E-02    0.960E-04
DAV:   3    -0.129436280589E+03   -0.41929E-07   -0.43003E-07   164   0.317E-03    0.766E-04
DAV:   4    -0.129436280601E+03   -0.11858E-07   -0.99027E-08   164   0.165E-03    0.261E-04
DAV:   5    -0.129436280605E+03   -0.40000E-08   -0.24038E-08   164   0.824E-04    0.146E-04
DAV:   6    -0.129436280608E+03   -0.30050E-08    0.21798E-09   164   0.492E-04
 105 F= -.12943628E+03 E0= -.12943628E+03  d E =-.565277E-05
damped:  g(F)=  0.000E+00 g(S)=  0.000E+00 dE (1.order)= 0.000E+00
 bond charge predicted
       N       E                     dE             d eps       ncg     rms          rms(c)
DAV:   1    -0.129436287051E+03   -0.64458E-05   -0.97865E-05   196   0.516E-02    0.195E-03
DAV:   2    -0.129436287441E+03   -0.39068E-06   -0.43781E-06   164   0.118E-02    0.117E-03
DAV:   3    -0.129436287487E+03   -0.45930E-07   -0.45740E-07   164   0.359E-03    0.865E-04
DAV:   4    -0.129436287506E+03   -0.18488E-07   -0.10306E-07   164   0.187E-03    0.191E-04
DAV:   5    -0.129436287509E+03   -0.29495E-08   -0.19761E-08   164   0.887E-04    0.142E-04
DAV:   6    -0.129436287512E+03   -0.32696E-08    0.45462E-09   164   0.467E-04
 106 F= -.12943629E+03 E0= -.12943629E+03  d E =-.690408E-05
damped:  g(F)=  0.000E+00 g(S)=  0.000E+00 dE (1.order)= 0.000E+00
 reached required accuracy - stopping structural energy minimisation
