unknown system                          
           1
    30.000000    0.000000    0.000000
     0.000000   30.000000    0.000000
     0.000000    0.000000   30.000000
   H    C    N    O 
  12   6   2   2
Direct configuration=     1
   0.37793153  0.53795483  0.50044286
   0.37535726  0.48111828  0.48387922
   0.38513388  0.49460180  0.54081593
   0.44863551  0.44899001  0.53062400
   0.52000846  0.43477183  0.53183934
   0.55632450  0.42901379  0.45871477
   0.51534402  0.46452891  0.43391166
   0.49969145  0.41131814  0.45572835
   0.51381022  0.54610553  0.49028302
   0.58602252  0.57516661  0.54844569
   0.60852706  0.56344605  0.49502422
   0.56505463  0.60395754  0.50059907
   0.39211956  0.50483291  0.50629175
   0.44168303  0.50641468  0.49607058
   0.51335767  0.46075034  0.50682163
   0.52153742  0.44034514  0.46066909
   0.54988430  0.49547117  0.51807365
   0.57756547  0.57187303  0.51287840
   0.46625158  0.47284547  0.51424147
   0.54345490  0.53827697  0.50586548
   0.45784892  0.53672551  0.47282293
   0.58445580  0.48149055  0.53595429
Direct configuration=     2
   0.37794473  0.53798790  0.50043947
   0.37534415  0.48111122  0.48385528
   0.38517824  0.49461187  0.54078179
   0.44861470  0.44904781  0.53068511
   0.51998375  0.43477516  0.53176691
   0.55632176  0.42904660  0.45865450
   0.51534229  0.46458322  0.43389158
   0.49968514  0.41133896  0.45564898
   0.51382338  0.54607655  0.49028070
   0.58598239  0.57513861  0.54848269
   0.60850663  0.56342565  0.49508801
   0.56504718  0.60396405  0.50063907
   0.39214649  0.50481977  0.50633554
   0.44167452  0.50639503  0.49602454
   0.51337029  0.46068629  0.50690425
   0.52154545  0.44039232  0.46061356
   0.54990826  0.49547671  0.51808194
   0.57759259  0.57185585  0.51296528
   0.46623046  0.47282669  0.51423365
   0.54342429  0.53824911  0.50592051
   0.45785631  0.53667625  0.47274363
   0.58447669  0.48151346  0.53596041
Direct configuration=     3
   0.37797447  0.53801176  0.50044162
   0.37533585  0.48111697  0.48383856
   0.38523741  0.49461529  0.54076930
   0.44857559  0.44912294  0.53078279
   0.51996069  0.43472592  0.53171252
   0.55632115  0.42909518  0.45856305
   0.51533752  0.46467422  0.43385933
   0.49968513  0.41138276  0.45553160
   0.51383656  0.54603497  0.49027498
   0.58593141  0.57509925  0.54856690
   0.60848803  0.56339177  0.49517975
   0.56504584  0.60395319  0.50070903
   0.39216294  0.50482553  0.50632961
   0.44167830  0.50636241  0.49596551
   0.51337110  0.46066638  0.50692844
   0.52154608  0.44044009  0.46056529
   0.54992116  0.49545008  0.51810558
   0.57758438  0.57184146  0.51305239
   0.46621985  0.47280467  0.51421872
   0.54340254  0.53824195  0.50600218
   0.45786214  0.53659876  0.47262677
   0.58452153  0.48154354  0.53597350
Direct configuration=     4
   0.37802083  0.53802358  0.50044968
   0.37533364  0.48113918  0.48383322
   0.38530813  0.49461143  0.54078110
   0.44852349  0.44921308  0.53091368
   0.51994192  0.43461871  0.53168407
   0.55632252  0.42915916  0.45844344
   0.51533078  0.46479663  0.43382244
   0.49969324  0.41145235  0.45538085
   0.51385122  0.54598332  0.49026733
   0.58587306  0.57505116  0.54870005
   0.60847372  0.56334515  0.49529818
   0.56505107  0.60392443  0.50080910
   0.39216684  0.50484923  0.50626722
   0.44169544  0.50631978  0.49589550
   0.51335858  0.46069111  0.50687474
   0.52153679  0.44049036  0.46052330
   0.54992608  0.49540172  0.51814867
   0.57753610  0.57182939  0.51313459
   0.46622066  0.47278243  0.51419918
   0.54338550  0.53824921  0.50610547
   0.45786742  0.53649307  0.47247489
   0.58458262  0.48157465  0.53599076
Direct configuration=     5
   0.37807856  0.53803746  0.50045902
   0.37533042  0.48117253  0.48383104
   0.38539283  0.49460825  0.54079170
   0.44847219  0.44932585  0.53107321
   0.51992054  0.43448361  0.53165022
   0.55632217  0.42924190  0.45829687
   0.51532467  0.46494154  0.43379219
   0.49970605  0.41154699  0.45519719
   0.51387318  0.54592259  0.49026081
   0.58580393  0.57499520  0.54886784
   0.60845770  0.56328771  0.49544942
   0.56505636  0.60389088  0.50093654
   0.39217352  0.50487153  0.50618915
   0.44171569  0.50627079  0.49580983
   0.51334475  0.46070480  0.50678570
   0.52152328  0.44056215  0.46045998
   0.54993770  0.49536522  0.51820877
   0.57747186  0.57180822  0.51324020
   0.46622036  0.47276167  0.51417969
   0.54335209  0.53824319  0.50622642
   0.45787914  0.53635822  0.47228410
   0.58464263  0.48159884  0.53600763
Direct configuration=     6
   0.37813948  0.53806883  0.50046397
   0.37531583  0.48120522  0.48381852
   0.38549169  0.49461493  0.54077055
   0.44843699  0.44946490  0.53125160
   0.51988847  0.43436498  0.53157001
   0.55631510  0.42934458  0.45812963
   0.51532040  0.46510084  0.43377306
   0.49971759  0.41165988  0.45498624
   0.51390220  0.54585526  0.49025650
   0.58572052  0.57493306  0.54904454
   0.60843071  0.56322371  0.49563560
   0.56505363  0.60386779  0.50108323
   0.39220211  0.50487659  0.50615066
   0.44172622  0.50621768  0.49570602
   0.51334561  0.46064935  0.50673284
   0.52151668  0.44066585  0.46035145
   0.54995872  0.49535517  0.51827340
   0.57742441  0.57176760  0.51339766
   0.46620883  0.47274335  0.51416335
   0.54329164  0.53821032  0.50635947
   0.45790414  0.53619974  0.47205598
   0.58468861  0.48160950  0.53602329
Direct configuration=     7
   0.37821039  0.53812010  0.50046406
   0.37528335  0.48123705  0.48378922
   0.38561378  0.49463328  0.54070953
   0.44842268  0.44964604  0.53146943
   0.51984161  0.43425859  0.53141988
   0.55629906  0.42948221  0.45792309
   0.51531460  0.46530446  0.43375470
   0.49972678  0.41180422  0.45472299
   0.51393145  0.54577558  0.49025024
   0.58561135  0.57485788  0.54924457
   0.60838407  0.56314599  0.49588331
   0.56504053  0.60385113  0.50126872
   0.39226057  0.50487191  0.50615878
   0.44173014  0.50615350  0.49557074
   0.51336496  0.46052272  0.50673587
   0.52152279  0.44080279  0.46018895
   0.54997392  0.49533636  0.51833868
   0.57739355  0.57170435  0.51362964
   0.46619355  0.47272499  0.51414685
   0.54321000  0.53816514  0.50652199
   0.45794652  0.53599761  0.47176251
   0.58472387  0.48160328  0.53604388
Direct configuration=     8
   0.37830452  0.53816653  0.50046582
   0.37524141  0.48128409  0.48375773
   0.38575321  0.49464983  0.54064934
   0.44843011  0.44986683  0.53174579
   0.51979326  0.43410643  0.53123575
   0.55628506  0.42966064  0.45766560
   0.51529923  0.46559342  0.43371634
   0.49973548  0.41199132  0.45439342
   0.51394556  0.54568503  0.49023508
   0.58547764  0.57476765  0.54950193
   0.60832166  0.56304712  0.49620405
   0.56502550  0.60381239  0.50151614
   0.39232792  0.50489341  0.50613888
   0.44175711  0.50607241  0.49540322
   0.51338045  0.46042639  0.50672051
   0.52153373  0.44094543  0.46001927
   0.54995246  0.49523494  0.51840343
   0.57733854  0.57164104  0.51390548
   0.46621005  0.47270309  0.51412463
   0.54313461  0.53813979  0.50672667
   0.45799968  0.53573547  0.47139255
   0.58475230  0.48157595  0.53607609
Direct configuration=     9
   0.37842699  0.53820009  0.50047260
   0.37520640  0.48136865  0.48374435
   0.38590090  0.49465267  0.54062810
   0.44846860  0.45012425  0.53209140
   0.51975794  0.43385465  0.53106142
   0.55629588  0.42987579  0.45735449
   0.51527315  0.46597445  0.43366699
   0.49973946  0.41221867  0.45399617
   0.51395909  0.54558715  0.49021860
   0.58532594  0.57466455  0.54984790
   0.60825662  0.56292332  0.49659515
   0.56501324  0.60373656  0.50183650
   0.39238630  0.50494515  0.50601929
   0.44183224  0.50596246  0.49521298
   0.51336806  0.46042351  0.50660277
   0.52152529  0.44111537  0.45986323
   0.54991034  0.49508918  0.51846946
   0.57722486  0.57159206  0.51419041
   0.46626975  0.47268100  0.51409850
   0.54304013  0.53808590  0.50696884
   0.45806032  0.53541086  0.47094149
   0.58475789  0.48151295  0.53611716
Direct configuration=    10
   0.37856281  0.53827550  0.50046833
   0.37516681  0.48147647  0.48372074
   0.38606286  0.49466456  0.54056786
   0.44858449  0.45043826  0.53250752
   0.51972247  0.43358968  0.53081391
   0.55632145  0.43013859  0.45699927
   0.51524442  0.46641080  0.43365485
   0.49972612  0.41248206  0.45353880
   0.51400400  0.54547648  0.49021888
   0.58514336  0.57454873  0.55024819
   0.60818190  0.56277900  0.49705847
   0.56497301  0.60367467  0.50221060
   0.39249096  0.50495642  0.50592410
   0.44192046  0.50582866  0.49498672
   0.51335997  0.46033803  0.50648763
   0.52150163  0.44138756  0.45963063
   0.54989222  0.49501952  0.51853008
   0.57709469  0.57147810  0.51455620
   0.46631880  0.47267449  0.51408686
   0.54287028  0.53795685  0.50722482
   0.45814714  0.53502500  0.47040064
   0.58470946  0.48137987  0.53616284
Direct configuration=    11
   0.37873180  0.53835865  0.50045306
   0.37511370  0.48157509  0.48364869
   0.38623898  0.49468839  0.54043355
   0.44878255  0.45079794  0.53301545
   0.51968981  0.43336707  0.53045877
   0.55628958  0.43047720  0.45662388
   0.51519749  0.46693083  0.43365378
   0.49971586  0.41281925  0.45304641
   0.51401444  0.54535147  0.49020293
   0.58491244  0.57440758  0.55065500
   0.60807813  0.56261476  0.49757410
   0.56489381  0.60360675  0.50262371
   0.39264635  0.50498733  0.50592019
   0.44197683  0.50570212  0.49470971
   0.51338921  0.46014987  0.50643831
   0.52151225  0.44164898  0.45933062
   0.54983237  0.49482494  0.51859471
   0.57693805  0.57129393  0.51500665
   0.46638222  0.47268433  0.51409179
   0.54276730  0.53794634  0.50750029
   0.45825845  0.53457041  0.46979361
   0.58463758  0.48119611  0.53622288
Direct configuration=    12
   0.37895488  0.53839397  0.50044992
   0.37512169  0.48173677  0.48360869
   0.38640833  0.49467310  0.54039127
   0.44902799  0.45118614  0.53362503
   0.51970255  0.43301058  0.53018273
   0.55627213  0.43084980  0.45623444
   0.51512493  0.46753006  0.43365674
   0.49970308  0.41320019  0.45253612
   0.51404346  0.54523197  0.49019472
   0.58465120  0.57423689  0.55112201
   0.60794617  0.56243906  0.49811164
   0.56482065  0.60342894  0.50309110
   0.39272712  0.50507820  0.50571041
   0.44207866  0.50552434  0.49447755
   0.51336583  0.46014835  0.50619286
   0.52147088  0.44190761  0.45908965
   0.54973128  0.49470767  0.51864533
   0.57681057  0.57128452  0.51537645
   0.46650703  0.47268940  0.51410316
   0.54258311  0.53768620  0.50777671
   0.45837159  0.53408507  0.46911485
   0.58457599  0.48097057  0.53630686
Direct configuration=    13
   0.37895158  0.53841565  0.50044462
   0.37512002  0.48173172  0.48359573
   0.38641059  0.49467823  0.54036938
   0.44904228  0.45119711  0.53363344
   0.51970201  0.43303497  0.53016185
   0.55627320  0.43085263  0.45623715
   0.51512328  0.46752401  0.43366515
   0.49969374  0.41319353  0.45253629
   0.51404359  0.54522486  0.49019671
   0.58464452  0.57423366  0.55111369
   0.60794841  0.56244007  0.49810489
   0.56480455  0.60345049  0.50307751
   0.39274268  0.50505546  0.50574647
   0.44208539  0.50553982  0.49446130
   0.51337746  0.46011835  0.50622445
   0.52146738  0.44193777  0.45907589
   0.54976572  0.49466096  0.51866463
   0.57680267  0.57123164  0.51539488
   0.46649078  0.47268867  0.51410883
   0.54259756  0.53774520  0.50776508
   0.45836294  0.53406354  0.46912333
   0.58454877  0.48098104  0.53629697
Direct configuration=    14
   0.37895026  0.53844763  0.50043665
   0.37512033  0.48172515  0.48357319
   0.38641391  0.49468397  0.54033846
   0.44906709  0.45121680  0.53365671
   0.51970320  0.43306921  0.53012968
   0.55627246  0.43086067  0.45624125
   0.51511773  0.46752048  0.43367690
   0.49967852  0.41318689  0.45253648
   0.51404402  0.54521348  0.49019957
   0.58463122  0.57422573  0.55110358
   0.60795300  0.56244146  0.49809243
   0.56477911  0.60347752  0.50305782
   0.39276678  0.50502625  0.50579509
   0.44208951  0.50555002  0.49444738
   0.51339236  0.46007655  0.50627061
   0.52146057  0.44198276  0.45905845
   0.54979343  0.49461390  0.51867891
   0.57678755  0.57115798  0.51541816
   0.46647260  0.47268996  0.51411629
   0.54262213  0.53781121  0.50775102
   0.45835371  0.53403450  0.46912400
   0.58452963  0.48098725  0.53629560
Direct configuration=    15
   0.37895225  0.53844609  0.50043697
   0.37512174  0.48172612  0.48357274
   0.38641373  0.49468283  0.54034067
   0.44906790  0.45121777  0.53366085
   0.51970425  0.43306629  0.53013075
   0.55627139  0.43086233  0.45624092
   0.51511643  0.46752369  0.43367581
   0.49967864  0.41318901  0.45253616
   0.51404440  0.54521349  0.49019967
   0.58463003  0.57422446  0.55110532
   0.60795302  0.56244138  0.49809232
   0.56477939  0.60347371  0.50305919
   0.39276578  0.50502962  0.50579035
   0.44208760  0.50554515  0.49445123
   0.51339057  0.46008045  0.50626737
   0.52146004  0.44198059  0.45906054
   0.54978575  0.49462300  0.51867428
   0.57678720  0.57116370  0.51541549
   0.46647590  0.47269032  0.51411598
   0.54262137  0.53779981  0.50775229
   0.45835516  0.53403564  0.46911933
   0.58453659  0.48098395  0.53630001
Direct configuration=    16
   0.37895614  0.53844339  0.50043751
   0.37512449  0.48172801  0.48357170
   0.38641342  0.49468069  0.54034467
   0.44906976  0.45121990  0.53366907
   0.51970631  0.43306085  0.53013253
   0.55626932  0.43086567  0.45624024
   0.51511387  0.46752992  0.43367382
   0.49967873  0.41319314  0.45253545
   0.51404519  0.54521334  0.49019994
   0.58462754  0.57422188  0.55110864
   0.60795297  0.56244123  0.49809218
   0.56477966  0.60346651  0.50306177
   0.39276392  0.50503588  0.50578156
   0.44208437  0.50553647  0.49445789
   0.51338732  0.46008779  0.50626134
   0.52145893  0.44197684  0.45906431
   0.54977274  0.49463883  0.51866645
   0.57678655  0.57117403  0.51541062
   0.46648198  0.47269084  0.51411561
   0.54261987  0.53777909  0.50775440
   0.45835758  0.53403695  0.46911070
   0.58454846  0.48097813  0.53630784
Direct configuration=    17
   0.37896195  0.53844027  0.50043806
   0.37512855  0.48173084  0.48356976
   0.38641304  0.49467780  0.54034965
   0.44907327  0.45122368  0.53368161
   0.51970940  0.43305357  0.53013432
   0.55626632  0.43087089  0.45623917
   0.51511005  0.46753901  0.43367130
   0.49967854  0.41319922  0.45253414
   0.51404643  0.54521268  0.49020057
   0.58462343  0.57421782  0.55111330
   0.60795270  0.56244106  0.49809219
   0.56477928  0.60345659  0.50306531
   0.39276155  0.50504405  0.50576995
   0.44208099  0.50552592  0.49446539
   0.51338315  0.46009780  0.50625317
   0.52145709  0.44197267  0.45906891
   0.54975883  0.49465691  0.51865814
   0.57678563  0.57118693  0.51540457
   0.46648981  0.47269115  0.51411573
   0.54261766  0.53775274  0.50775651
   0.45836011  0.53403650  0.46909928
   0.58456131  0.48097130  0.53631722
Direct configuration=    18
   0.37896954  0.53843801  0.50043828
   0.37513371  0.48173454  0.48356641
   0.38641275  0.49467462  0.54035411
   0.44907932  0.45122979  0.53369857
   0.51971343  0.43304571  0.53013486
   0.55626252  0.43087819  0.45623758
   0.51510504  0.46755046  0.43366890
   0.49967762  0.41320700  0.45253189
   0.51404813  0.54521089  0.49020177
   0.58461724  0.57421209  0.55111883
   0.60795195  0.56244096  0.49809272
   0.56477721  0.60344538  0.50306933
   0.39275930  0.50505236  0.50575788
   0.44207922  0.50551647  0.49447066
   0.51337922  0.46010873  0.50624436
   0.52145431  0.44197017  0.45907278
   0.54975055  0.49467004  0.51865342
   0.57678452  0.57119884  0.51539909
   0.46649763  0.47269074  0.51411711
   0.54261498  0.53772730  0.50775738
   0.45836149  0.53403142  0.46908689
   0.58456941  0.48096567  0.53632543
Direct configuration=    19
   0.37896982  0.53843830  0.50043818
   0.37513389  0.48173468  0.48356610
   0.38641277  0.49467462  0.54035386
   0.44907984  0.45123026  0.53369938
   0.51971357  0.43304577  0.53013451
   0.55626240  0.43087856  0.45623750
   0.51510484  0.46755080  0.43366901
   0.49967744  0.41320725  0.45253172
   0.51404819  0.54521063  0.49020188
   0.58461684  0.57421179  0.55111889
   0.60795186  0.56244098  0.49809280
   0.56477681  0.60344531  0.50306933
   0.39275941  0.50505218  0.50575806
   0.44207961  0.50551685  0.49447007
   0.51337939  0.46010866  0.50624446
   0.52145412  0.44197069  0.45907250
   0.54975189  0.49466864  0.51865428
   0.57678448  0.57119827  0.51539935
   0.46649746  0.47269062  0.51411739
   0.54261499  0.53772808  0.50775706
   0.45836122  0.53403043  0.46908683
   0.58456828  0.48096601  0.53632508
Direct configuration=    20
   0.37897039  0.53843888  0.50043799
   0.37513424  0.48173496  0.48356550
   0.38641282  0.49467461  0.54035335
   0.44908088  0.45123120  0.53370099
   0.51971387  0.43304588  0.53013381
   0.55626215  0.43087931  0.45623733
   0.51510444  0.46755147  0.43366921
   0.49967708  0.41320776  0.45253138
   0.51404831  0.54521012  0.49020208
   0.58461604  0.57421119  0.55111903
   0.60795166  0.56244104  0.49809297
   0.56477601  0.60344517  0.50306934
   0.39275962  0.50505184  0.50575842
   0.44208036  0.50551758  0.49446892
   0.51337971  0.46010852  0.50624464
   0.52145375  0.44197171  0.45907196
   0.54975447  0.49466592  0.51865594
   0.57678438  0.57119716  0.51539988
   0.46649713  0.47269039  0.51411794
   0.54261502  0.53772955  0.50775644
   0.45836068  0.53402848  0.46908668
   0.58456609  0.48096666  0.53632443
Direct configuration=    21
   0.37897125  0.53843973  0.50043771
   0.37513477  0.48173539  0.48356459
   0.38641290  0.49467459  0.54035259
   0.44908244  0.45123260  0.53370343
   0.51971432  0.43304602  0.53013276
   0.55626177  0.43088045  0.45623706
   0.51510383  0.46755252  0.43366951
   0.49967654  0.41320855  0.45253085
   0.51404849  0.54520936  0.49020238
   0.58461484  0.57421028  0.55111927
   0.60795137  0.56244112  0.49809325
   0.56477482  0.60344494  0.50306938
   0.39275994  0.50505136  0.50575892
   0.44208142  0.50551855  0.49446729
   0.51338017  0.46010831  0.50624491
   0.52145320  0.44197324  0.45907114
   0.54975810  0.49466204  0.51865829
   0.57678422  0.57119553  0.51540066
   0.46649667  0.47269006  0.51411875
   0.54261508  0.53773163  0.50775556
   0.45835993  0.53402562  0.46908637
   0.58456302  0.48096754  0.53632357
Direct configuration=    22
   0.37897244  0.53844086  0.50043734
   0.37513548  0.48173597  0.48356336
   0.38641301  0.49467456  0.54035161
   0.44908451  0.45123447  0.53370677
   0.51971492  0.43304616  0.53013134
   0.55626126  0.43088199  0.45623668
   0.51510301  0.46755397  0.43366988
   0.49967583  0.41320964  0.45253010
   0.51404871  0.54520834  0.49020278
   0.58461322  0.57420904  0.55111964
   0.60795100  0.56244122  0.49809364
   0.56477324  0.60344459  0.50306949
   0.39276038  0.50505076  0.50575953
   0.44208274  0.50551966  0.49446526
   0.51338076  0.46010802  0.50624525
   0.52145246  0.44197526  0.45907007
   0.54976250  0.49465721  0.51866118
   0.57678398  0.57119343  0.51540168
   0.46649614  0.47268966  0.51411979
   0.54261521  0.53773413  0.50775447
   0.45835901  0.53402191  0.46908577
   0.58455930  0.48096854  0.53632263
Direct configuration=    23
   0.37897397  0.53844224  0.50043688
   0.37513639  0.48173672  0.48356181
   0.38641316  0.49467452  0.54035040
   0.44908710  0.45123683  0.53371106
   0.51971568  0.43304624  0.53012952
   0.55626059  0.43088399  0.45623614
   0.51510196  0.46755589  0.43367030
   0.49967494  0.41321108  0.45252911
   0.51404897  0.54520707  0.49020326
   0.58461115  0.57420747  0.55112020
   0.60795054  0.56244134  0.49809419
   0.56477128  0.60344408  0.50306970
   0.39276095  0.50505010  0.50576020
   0.44208422  0.50552072  0.49446296
   0.51338145  0.46010764  0.50624562
   0.52145153  0.44197779  0.45906873
   0.54976729  0.49465175  0.51866437
   0.57678363  0.57119094  0.51540296
   0.46649559  0.47268923  0.51412104
   0.54261544  0.53773681  0.50775327
   0.45835800  0.53401744  0.46908473
   0.58455528  0.48096951  0.53632180
Direct configuration=    24
   0.37897588  0.53844387  0.50043632
   0.37513750  0.48173767  0.48355992
   0.38641334  0.49467444  0.54034900
   0.44909020  0.45123966  0.53371639
   0.51971660  0.43304622  0.53012730
   0.55625976  0.43088647  0.45623542
   0.51510066  0.46755837  0.43367074
   0.49967387  0.41321290  0.45252783
   0.51404925  0.54520555  0.49020381
   0.58460861  0.57420552  0.55112101
   0.60795002  0.56244148  0.49809493
   0.56476895  0.60344334  0.50307008
   0.39276165  0.50504944  0.50576086
   0.44208574  0.50552152  0.49446057
   0.51338221  0.46010719  0.50624601
   0.52145041  0.44198079  0.45906714
   0.54977196  0.49464607  0.51866759
   0.57678315  0.57118816  0.51540445
   0.46649511  0.47268882  0.51412243
   0.54261584  0.53773935  0.50775205
   0.45835702  0.53401231  0.46908305
   0.58455136  0.48097025  0.53632133
Direct configuration=    25
   0.37897846  0.53844591  0.50043561
   0.37513895  0.48173896  0.48355745
   0.38641360  0.49467432  0.54034728
   0.44909418  0.45124333  0.53372351
   0.51971779  0.43304598  0.53012439
   0.55625866  0.43088978  0.45623436
   0.51509895  0.46756179  0.43367120
   0.49967251  0.41321540  0.45252604
   0.51404959  0.54520360  0.49020450
   0.58460526  0.57420296  0.55112226
   0.60794937  0.56244164  0.49809601
   0.56476600  0.60344222  0.50307078
   0.39276258  0.50504879  0.50576146
   0.44208732  0.50552183  0.49445804
   0.51338306  0.46010661  0.50624638
   0.52144899  0.44198460  0.45906513
   0.54977642  0.49464007  0.51867083
   0.57678237  0.57118490  0.51540639
   0.46649479  0.47268844  0.51412409
   0.54261649  0.53774160  0.50775082
   0.45835608  0.53400610  0.46908022
   0.58454769  0.48097057  0.53632148
Direct configuration=    26
   0.37898185  0.53844837  0.50043474
   0.37514079  0.48174065  0.48355433
   0.38641393  0.49467414  0.54034525
   0.44909911  0.45124792  0.53373272
   0.51971930  0.43304537  0.53012066
   0.55625723  0.43089409  0.45623285
   0.51509676  0.46756641  0.43367163
   0.49967083  0.41321875  0.45252358
   0.51404996  0.54520119  0.49020533
   0.58460097  0.57419967  0.55112416
   0.60794860  0.56244182  0.49809758
   0.56476240  0.60344056  0.50307195
   0.39276378  0.50504826  0.50576188
   0.44208878  0.50552127  0.49445559
   0.51338395  0.46010589  0.50624667
   0.52144723  0.44198928  0.45906267
   0.54977993  0.49463434  0.51867366
   0.57678122  0.57118130  0.51540880
   0.46649477  0.47268814  0.51412597
   0.54261747  0.53774300  0.50774977
   0.45835535  0.53399884  0.46907581
   0.58454490  0.48097014  0.53632266
Direct configuration=    27
   0.37898619  0.53845125  0.50043368
   0.37514305  0.48174283  0.48355048
   0.38641437  0.49467387  0.54034294
   0.44910508  0.45125354  0.53374438
   0.51972115  0.43304420  0.53011602
   0.55625542  0.43089959  0.45623073
   0.51509403  0.46757254  0.43367193
   0.49966882  0.41322314  0.45252027
   0.51405038  0.54519828  0.49020632
   0.58459560  0.57419554  0.55112693
   0.60794771  0.56244201  0.49809982
   0.56475811  0.60343821  0.50307381
   0.39276529  0.50504801  0.50576192
   0.44208995  0.50551942  0.49445343
   0.51338481  0.46010506  0.50624673
   0.52144509  0.44199486  0.45905967
   0.54978177  0.49462952  0.51867571
   0.57677961  0.57117749  0.51541178
   0.46649526  0.47268798  0.51412802
   0.54261881  0.53774290  0.50774910
   0.45835502  0.53399055  0.46906930
   0.58454359  0.48096859  0.53632529
Direct configuration=    28
   0.37899172  0.53845456  0.50043243
   0.37514577  0.48174564  0.48354581
   0.38641494  0.49467353  0.54034036
   0.44911222  0.45126036  0.53375890
   0.51972340  0.43304219  0.53011028
   0.55625317  0.43090652  0.45622779
   0.51509066  0.46758058  0.43367199
   0.49966646  0.41322886  0.45251580
   0.51405085  0.54519480  0.49020750
   0.58458895  0.57419042  0.55113091
   0.60794669  0.56244219  0.49810302
   0.56475308  0.60343495  0.50307667
   0.39276714  0.50504822  0.50576137
   0.44209068  0.50551588  0.49445172
   0.51338554  0.46010415  0.50624639
   0.52144255  0.44200140  0.45905608
   0.54978137  0.49462616  0.51867665
   0.57677743  0.57117368  0.51541544
   0.46649646  0.47268797  0.51413023
   0.54262051  0.53774061  0.50774904
   0.45835527  0.53398116  0.46906015
   0.58454426  0.48096559  0.53632973
Direct configuration=    29
   0.37899876  0.53845834  0.50043093
   0.37514901  0.48174925  0.48354016
   0.38641568  0.49467308  0.54033753
   0.44912075  0.45126864  0.53377691
   0.51972611  0.43303896  0.53010316
   0.55625040  0.43091527  0.45622367
   0.51508654  0.46759112  0.43367165
   0.49966371  0.41323628  0.45250976
   0.51405144  0.54519063  0.49020897
   0.58458071  0.57418406  0.55113659
   0.60794552  0.56244234  0.49810763
   0.56474721  0.60343051  0.50308097
   0.39276941  0.50504910  0.50575994
   0.44209092  0.50551033  0.49445042
   0.51338606  0.46010323  0.50624535
   0.52143956  0.44200906  0.45905170
   0.54977856  0.49462454  0.51867644
   0.57677449  0.57117003  0.51542009
   0.46649857  0.47268808  0.51413261
   0.54262244  0.53773544  0.50774981
   0.45835625  0.53397030  0.46904770
   0.58454703  0.48096083  0.53633626
Direct configuration=    30
   0.37900776  0.53846270  0.50042910
   0.37515282  0.48175393  0.48353333
   0.38641665  0.49467257  0.54033437
   0.44913103  0.45127879  0.53379920
   0.51972940  0.43303401  0.53009425
   0.55624701  0.43092637  0.45621789
   0.51508151  0.46760498  0.43367071
   0.49966051  0.41324598  0.45250146
   0.51405224  0.54518557  0.49021089
   0.58457045  0.57417615  0.55114468
   0.60794410  0.56244243  0.49811436
   0.56474029  0.60342460  0.50308734
   0.39277217  0.50505085  0.50575735
   0.44209086  0.50550261  0.49444914
   0.51338630  0.46010237  0.50624323
   0.52143605  0.44201809  0.45904623
   0.54977396  0.49462433  0.51867550
   0.57677060  0.57116659  0.51542628
   0.46650177  0.47268814  0.51413527
   0.54262434  0.53772693  0.50775160
   0.45835800  0.53395720  0.46903127
   0.58455126  0.48095422  0.53634479
Direct configuration=    31
   0.37901929  0.53846786  0.50042683
   0.37515723  0.48176004  0.48352506
   0.38641796  0.49467206  0.54033073
   0.44914355  0.45129140  0.53382670
   0.51973338  0.43302672  0.53008292
   0.55624289  0.43094053  0.45620972
   0.51507543  0.46762321  0.43366893
   0.49965678  0.41325865  0.45248996
   0.51405342  0.54517934  0.49021350
   0.58455759  0.57416626  0.55115609
   0.60794231  0.56244243  0.49812427
   0.56473201  0.60341691  0.50309665
   0.39277555  0.50505362  0.50575333
   0.44209100  0.50549307  0.49444692
   0.51338626  0.46010163  0.50623956
   0.52143193  0.44202900  0.45903913
   0.54976944  0.49462408  0.51867504
   0.57676561  0.57116313  0.51543484
   0.46650605  0.47268785  0.51413844
   0.54262574  0.53771521  0.50775451
   0.45836043  0.53394043  0.46901031
   0.58455526  0.48094598  0.53635482
Direct configuration=    32
   0.37903393  0.53847417  0.50042393
   0.37516218  0.48176800  0.48351506
   0.38641974  0.49467172  0.54032629
   0.44915890  0.45130713  0.53386031
   0.51973810  0.43301646  0.53006832
   0.55623802  0.43095850  0.45619829
   0.51506817  0.46764688  0.43366611
   0.49965239  0.41327506  0.45247405
   0.51405514  0.54517153  0.49021716
   0.58454147  0.57415392  0.55117193
   0.60793992  0.56244231  0.49813870
   0.56472195  0.60340733  0.50310992
   0.39277972  0.50505739  0.50574782
   0.44209224  0.50548249  0.49444224
   0.51338609  0.46010093  0.50623391
   0.52142708  0.44204253  0.45902956
   0.54976777  0.49462119  0.51867689
   0.57675942  0.57115907  0.51544691
   0.46651117  0.47268677  0.51414242
   0.54262607  0.53770135  0.50775853
   0.45836321  0.53391807  0.46898453
   0.58455641  0.48093663  0.53636538
Direct configuration=    33
   0.37905231  0.53848218  0.50042016
   0.37516755  0.48177829  0.48350302
   0.38642216  0.49467181  0.54032050
   0.44917769  0.45132676  0.53390101
   0.51974360  0.43300263  0.53004931
   0.55623241  0.43098116  0.45618248
   0.51505966  0.46767717  0.43366208
   0.49964719  0.41329602  0.45245227
   0.51405755  0.54516163  0.49022223
   0.58452128  0.57413863  0.55119349
   0.60793668  0.56244205  0.49815938
   0.56470959  0.60339591  0.50312836
   0.39278497  0.50506192  0.50574096
   0.44209553  0.50547161  0.49443351
   0.51338619  0.46009981  0.50622601
   0.52142136  0.44205982  0.45901633
   0.54977119  0.49461271  0.51868270
   0.57675184  0.57115337  0.51546395
   0.46651671  0.47268455  0.51414747
   0.54262496  0.53768696  0.50776384
   0.45836614  0.53388798  0.46895343
   0.58455253  0.48092645  0.53637579
Direct configuration=    34
   0.37907523  0.53849268  0.50041522
   0.37517312  0.48179154  0.48348848
   0.38642551  0.49467269  0.54031259
   0.44920065  0.45135122  0.53395020
   0.51974981  0.43298441  0.53002419
   0.55622610  0.43100964  0.45616076
   0.51504982  0.46771558  0.43365666
   0.49964095  0.41332260  0.45242257
   0.51406063  0.54514900  0.49022907
   0.58449602  0.57411973  0.55122254
   0.60793231  0.56244166  0.49818858
   0.56469427  0.60338277  0.50315365
   0.39279182  0.50506691  0.50573295
   0.44210155  0.50546022  0.49441961
   0.51338698  0.46009720  0.50621567
   0.52141438  0.44208269  0.45899786
   0.54977943  0.49459665  0.51869282
   0.57674243  0.57114468  0.51548793
   0.46652240  0.47268109  0.51415360
   0.54262261  0.53767342  0.50777116
   0.45836952  0.53384830  0.46891557
   0.58454354  0.48091475  0.53638659
Direct configuration=    35
   0.37910368  0.53850657  0.50040870
   0.37517862  0.48180860  0.48347086
   0.38643018  0.49467481  0.54030161
   0.44922846  0.45138158  0.53400988
   0.51975662  0.43296068  0.52999076
   0.55621911  0.43104545  0.45613104
   0.51503856  0.46776413  0.43364958
   0.49963337  0.41335625  0.45238231
   0.51406415  0.54513290  0.49023793
   0.58446436  0.57409639  0.55126138