Created on Thu Jan 16 12:30:01 2020 

          22 atoms
          21 bonds
          36 angles
          41 dihedrals
          12 impropers

           5 atom types
           7 bond types
          13 angle types
           3 dihedral types
           1 improper types
           0.000000  30.000000 xlo xhi
           0.000000  30.000000 ylo yhi
           0.000000  30.000000 zlo zhi
           0.000000   0.000000   0.000000 xy xz yz

Masses

    1     1.007940000 # H_
    2    12.010700000 # C_3
    3    12.010700000 # C_R
    4    14.006700000 # N_R
    5    15.999400000 # O_R

Bond Coeffs

    1      331.069389        1.109401  # H_ C_3
    2      529.459447        1.043423  # H_ N_R
    3      369.943935        1.486000  # C_3 C_R
    4      663.718927        1.345073  # C_R N_R
    5      646.680887        1.311940  # C_R O_R
    6      529.724731        1.450075  # C_3 N_R
    7      349.795899        1.514000  # C_3 C_3

Angle Coeffs

    1                      fourier       61.342703        0.343737        0.374972        0.281246 # H_ C_3 H_
    2                      fourier       73.868412        0.343737        0.374972        0.281246 # H_ C_3 C_R
    3              cosine/periodic      136.632200              -1               3 # C_3 C_R N_R
    4              cosine/periodic      130.962624              -1               3 # C_3 C_R O_R
    5              cosine/periodic      225.881601              -1               3 # N_R C_R O_R
    6                      fourier      145.046652        0.343737        0.374972        0.281246 # C_R C_3 N_R
    7                      fourier       97.888497        0.343737        0.374972        0.281246 # C_R C_3 C_3
    8                      fourier      105.679036        0.343737        0.374972        0.281246 # N_R C_3 H_
    9                      fourier      138.285829        0.343737        0.374972        0.281246 # N_R C_3 C_3
   10                      fourier       69.847816        0.343737        0.374972        0.281246 # H_ C_3 C_3
   11              cosine/periodic       71.655168              -1               3 # C_3 N_R H_
   12              cosine/periodic      109.494736              -1               3 # C_3 N_R C_R
   13              cosine/periodic       89.115099              -1               3 # H_ N_R C_R

Dihedral Coeffs

    1        0.416667              -1               2 # H_ C_3 C_R N_R
    2        1.497136              -1               2 # C_3 C_R N_R C_3
    3        0.066219               1               3 # C_R C_3 C_3 H_

Improper Coeffs

    1        2.000000        1.000000       -1.000000        0.000000               0 # C_3 C_R N_R O_R

Pair Coeffs

    1        0.044000        2.571134 # H_ H_
    2        0.105000        3.430851 # C_3 C_3
    3        0.105000        3.430851 # C_R C_R
    4        0.069000        3.260689 # N_R N_R
    5        0.060000        3.118146 # O_R O_R

Atoms

       1        1        1     0.00000   10.46790   17.83080   15.95970
       2        1        1     0.00000   10.51500   16.25880   15.10350
       3        1        1     0.00000   10.55220   16.30350   16.88070
       4        1        1     0.00000   12.54270   14.88990   15.63840
       5        1        1     0.00000   14.84220   16.38660   16.63950
       6        1        1     0.00000   16.02090   14.17890   16.45950
       7        1        1     0.00000   14.64000   13.48710   15.60480
       8        1        1     0.00000   14.46690   14.00100   17.32020
       9        1        1     0.00000   14.72280   17.93490   14.92890
      10        1        1     0.00000   16.79880   17.37240   12.88170
      11        1        1     0.00000   15.17940   17.64180   12.20370
      12        1        1     0.00000   15.96450   18.92970   13.17120
      13        1        2     0.00000   10.89240   16.82160   15.97080
      14        1        3     0.00000   12.40500   16.92150   15.95640
      15        1        2     0.00000   14.52900   15.63330   15.89790
      16        1        2     0.00000   14.93010   14.23950   16.35240
      17        1        3     0.00000   15.19800   15.99240   14.54490
      18        1        2     0.00000   15.82560   17.84580   13.07310
      19        1        4     0.00000   13.07100   15.74220   15.80700
      20        1        4     0.00000   15.26280   17.32620   14.30580
      21        1        5     0.00000   13.00590   18.00120   16.09560
      22        1        5     0.00000   15.64020   15.13200   13.77330

Bonds

       1        1        1       13
       2        1        2       13
       3        1        3       13
       4        2        4       19
       5        1        5       15
       6        1        6       16
       7        1        7       16
       8        1        8       16
       9        2        9       20
      10        1       10       18
      11        1       11       18
      12        1       12       18
      13        3       13       14
      14        4       14       19
      15        5       14       21
      16        7       15       16
      17        3       15       17
      18        6       15       19
      19        4       17       20
      20        5       17       22
      21        6       18       20

Angles

       1        1        1       13        2
       2        2        1       13       14
       3        1        1       13        3
       4        2        2       13       14
       5        1        2       13        3
       6        2       14       13        3
       7        3       13       14       19
       8        4       13       14       21
       9        5       19       14       21
      10        6       17       15       19
      11        2       17       15        5
      12        7       17       15       16
      13        8       19       15        5
      14        9       19       15       16
      15       10        5       15       16
      16       10       15       16        6
      17       10       15       16        7
      18       10       15       16        8
      19        1        6       16        7
      20        1        6       16        8
      21        1        7       16        8
      22        3       15       17       20
      23        4       15       17       22
      24        5       20       17       22
      25        1       10       18       11
      26        8       10       18       20
      27        1       10       18       12
      28        8       11       18       20
      29        1       11       18       12
      30        8       20       18       12
      31       11       15       19        4
      32       12       15       19       14
      33       13        4       19       14
      34       11       18       20        9
      35       12       18       20       17
      36       13        9       20       17

Dihedrals

       1        1        1       13       14       19
       2        1        1       13       14       21
       3        1        2       13       14       19
       4        1        2       13       14       21
       5        1        3       13       14       19
       6        1        3       13       14       21
       7        2       13       14       19       15
       8        2       13       14       19        4
       9        2       21       14       19       15
      10        2       21       14       19        4
      11        3       17       15       16        6
      12        3       17       15       16        7
      13        3       17       15       16        8
      14        3       19       15       16        6
      15        3       19       15       16        7
      16        3       19       15       16        8
      17        3        5       15       16        6
      18        3        5       15       16        7
      19        3        5       15       16        8
      20        1       19       15       17       20
      21        1       19       15       17       22
      22        1        5       15       17       20
      23        1        5       15       17       22
      24        1       16       15       17       20
      25        1       16       15       17       22
      26        1       17       15       19        4
      27        1       17       15       19       14
      28        1        5       15       19        4
      29        1        5       15       19       14
      30        1       16       15       19        4
      31        1       16       15       19       14
      32        2       15       17       20       18
      33        2       15       17       20        9
      34        2       22       17       20       18
      35        2       22       17       20        9
      36        1       10       18       20        9
      37        1       10       18       20       17
      38        1       11       18       20        9
      39        1       11       18       20       17
      40        1       12       18       20        9
      41        1       12       18       20       17

Impropers

       1        1       14       13       19       21
       2        1       14       19       13       21
       3        1       14       21       13       19
       4        1       17       15       20       22
       5        1       17       20       15       22
       6        1       17       22       15       20
       7        1       19       15        4       14
       8        1       19        4       15       14
       9        1       19       14       15        4
      10        1       20       18        9       17
      11        1       20        9       18       17
      12        1       20       17       18        9
