  22  22   0   0
  0.1227273E+04  0.3000000E-08  0.3000000E-08  0.3000000E-08  0.0000000E+00
  1.000000000000000E-004
  CAR 
 unknown system                          
      2.19815962    -28.22433148  301     -4.49399617      1.00000000
    -28.224  0.0000E+00  0.0000E+00
    -28.123  0.0000E+00  0.0000E+00
    -28.022  0.0000E+00  0.0000E+00
    -27.920  0.0000E+00  0.0000E+00
    -27.819  0.0000E+00  0.0000E+00
    -27.717  0.0000E+00  0.0000E+00
    -27.616  0.0000E+00  0.0000E+00
    -27.514  0.0000E+00  0.0000E+00
    -27.413  0.0000E+00  0.0000E+00
    -27.312  0.4890E-15  0.4959E-16
    -27.210  0.1026E-12  0.1045E-13
    -27.109  0.1301E-10  0.1330E-11
    -27.007  0.9962E-09  0.1024E-09
    -26.906  0.4611E-07  0.4778E-08
    -26.805  0.1292E-05  0.1358E-06
    -26.703  0.2196E-04  0.2363E-05
    -26.602  0.2267E-03  0.2535E-04
    -26.500  0.1424E-02  0.1698E-03
    -26.399  0.5453E-02  0.7228E-03
    -26.298  0.1274E-01  0.2015E-02
    -26.196  0.1819E-01  0.3860E-02
    -26.095  0.1586E-01  0.5468E-02
    -25.993  0.8464E-02  0.6327E-02
    -25.892  0.2882E-02  0.6619E-02
    -25.791  0.1486E-02  0.6769E-02
    -25.689  0.4144E-02  0.7190E-02
    -25.588  0.1079E-01  0.8284E-02
    -25.486  0.1742E-01  0.1005E-01
    -25.385  0.1720E-01  0.1179E-01
    -25.283  0.1037E-01  0.1285E-01
    -25.182  0.3818E-02  0.1323E-01
    -25.081  0.8577E-03  0.1332E-01
    -24.979  0.1174E-03  0.1333E-01
    -24.878  0.9771E-05  0.1333E-01
    -24.776  0.4938E-06  0.1333E-01
    -24.675  0.1513E-07  0.1333E-01
    -24.574  0.2804E-09  0.1333E-01
    -24.472  0.3165E-11  0.1333E-01
    -24.371  0.3429E-11  0.1333E-01
    -24.269  0.3016E-09  0.1333E-01
    -24.168  0.1613E-07  0.1333E-01
    -24.067  0.5220E-06  0.1333E-01
    -23.965  0.1024E-04  0.1333E-01
    -23.864  0.1220E-03  0.1335E-01
    -23.762  0.8837E-03  0.1344E-01
    -23.661  0.3900E-02  0.1383E-01
    -23.560  0.1050E-01  0.1490E-01
    -23.458  0.1727E-01  0.1665E-01
    -23.357  0.1735E-01  0.1841E-01
    -23.255  0.1065E-01  0.1949E-01
    -23.154  0.4006E-02  0.1989E-01
    -23.053  0.1052E-02  0.2000E-01
    -22.951  0.1100E-02  0.2011E-01
    -22.850  0.4188E-02  0.2054E-01
    -22.748  0.1094E-01  0.2165E-01
    -22.647  0.1750E-01  0.2342E-01
    -22.545  0.1711E-01  0.2516E-01
    -22.444  0.1022E-01  0.2619E-01
    -22.343  0.3726E-02  0.2657E-01
    -22.241  0.8289E-03  0.2665E-01
    -22.140  0.1123E-03  0.2667E-01
    -22.038  0.9260E-05  0.2667E-01
    -21.937  0.4634E-06  0.2667E-01
    -21.836  0.1406E-07  0.2667E-01
    -21.734  0.2581E-09  0.2667E-01
    -21.633  0.2862E-11  0.2667E-01
    -21.531  0.1917E-13  0.2667E-01
    -21.430  0.7299E-16  0.2667E-01
    -21.329  0.0000E+00  0.2667E-01
    -21.227  0.0000E+00  0.2667E-01
    -21.126  0.0000E+00  0.2667E-01
    -21.024  0.0000E+00  0.2667E-01
    -20.923  0.0000E+00  0.2667E-01
    -20.822  0.0000E+00  0.2667E-01
    -20.720  0.8758E-16  0.2667E-01
    -20.619  0.2146E-13  0.2667E-01
    -20.517  0.3172E-11  0.2667E-01
    -20.416  0.2829E-09  0.2667E-01
    -20.314  0.1524E-07  0.2667E-01
    -20.213  0.4971E-06  0.2667E-01
    -20.112  0.9825E-05  0.2667E-01
    -20.010  0.1179E-03  0.2668E-01
    -19.909  0.8608E-03  0.2677E-01
    -19.807  0.3828E-02  0.2716E-01
    -19.706  0.1038E-01  0.2821E-01
    -19.605  0.1720E-01  0.2995E-01
    -19.503  0.1741E-01  0.3172E-01
    -19.402  0.1077E-01  0.3281E-01
    -19.300  0.4068E-02  0.3322E-01
    -19.199  0.9375E-03  0.3332E-01
    -19.098  0.1316E-03  0.3333E-01
    -18.996  0.1126E-04  0.3333E-01
    -18.895  0.1099E-05  0.3333E-01
    -18.793  0.1015E-04  0.3333E-01
    -18.692  0.1209E-03  0.3335E-01
    -18.591  0.8779E-03  0.3344E-01
    -18.489  0.3882E-02  0.3383E-01
    -18.388  0.1047E-01  0.3489E-01
    -18.286  0.1725E-01  0.3664E-01
    -18.185  0.1737E-01  0.3840E-01
    -18.084  0.1068E-01  0.3949E-01
    -17.982  0.4013E-02  0.3989E-01
    -17.881  0.9230E-03  0.3999E-01
    -17.779  0.1796E-03  0.4000E-01
    -17.678  0.4579E-03  0.4005E-01
    -17.576  0.2374E-02  0.4029E-01
    -17.475  0.7687E-02  0.4107E-01
    -17.374  0.1519E-01  0.4261E-01
    -17.272  0.1835E-01  0.4447E-01
    -17.171  0.1354E-01  0.4585E-01
    -17.069  0.6103E-02  0.4646E-01
    -16.968  0.1679E-02  0.4664E-01
    -16.867  0.2816E-03  0.4666E-01
    -16.765  0.2926E-04  0.4667E-01
    -16.664  0.1194E-04  0.4667E-01
    -16.562  0.1212E-03  0.4668E-01
    -16.461  0.8792E-03  0.4677E-01
    -16.360  0.3886E-02  0.4716E-01
    -16.258  0.1048E-01  0.4823E-01
    -16.157  0.1726E-01  0.4998E-01
    -16.055  0.1736E-01  0.5174E-01
    -15.954  0.1068E-01  0.5282E-01
    -15.853  0.4008E-02  0.5323E-01
    -15.751  0.9181E-03  0.5332E-01
    -15.650  0.1281E-03  0.5333E-01
    -15.548  0.1088E-04  0.5333E-01
    -15.447  0.5792E-06  0.5333E-01
    -15.345  0.6093E-06  0.5333E-01
    -15.244  0.1139E-04  0.5333E-01
    -15.143  0.1330E-03  0.5335E-01
    -15.041  0.9452E-03  0.5344E-01
    -14.940  0.4092E-02  0.5386E-01
    -14.838  0.1081E-01  0.5495E-01
    -14.737  0.1743E-01  0.5672E-01
    -14.636  0.1718E-01  0.5847E-01
    -14.534  0.1035E-01  0.5951E-01
    -14.433  0.3816E-02  0.5990E-01
    -14.331  0.9844E-03  0.6000E-01
    -14.230  0.1049E-02  0.6011E-01
    -14.129  0.4062E-02  0.6052E-01
    -14.027  0.1075E-01  0.6161E-01
    -13.926  0.1740E-01  0.6337E-01
    -13.824  0.1722E-01  0.6512E-01
    -13.723  0.1046E-01  0.6618E-01
    -13.622  0.4257E-02  0.6661E-01
    -13.520  0.3108E-02  0.6693E-01
    -13.419  0.7524E-02  0.6769E-01
    -13.317  0.1494E-01  0.6921E-01
    -13.216  0.1838E-01  0.7107E-01
    -13.114  0.1384E-01  0.7247E-01
    -13.013  0.6381E-02  0.7312E-01
    -12.912  0.2010E-02  0.7332E-01
    -12.810  0.1724E-02  0.7350E-01
    -12.709  0.5471E-02  0.7405E-01
    -12.607  0.1273E-01  0.7534E-01
    -12.506  0.1818E-01  0.7719E-01
    -12.405  0.1588E-01  0.7880E-01
    -12.303  0.8470E-02  0.7966E-01
    -12.202  0.2759E-02  0.7994E-01
    -12.100  0.5515E-03  0.7999E-01
    -11.999  0.1166E-03  0.8000E-01
    -11.898  0.4492E-03  0.8005E-01
    -11.796  0.2412E-02  0.8030E-01
    -11.695  0.8188E-02  0.8113E-01
    -11.593  0.1796E-01  0.8295E-01
    -11.492  0.2697E-01  0.8568E-01
    -11.391  0.2961E-01  0.8869E-01
    -11.289  0.2446E-01  0.9117E-01
    -11.188  0.1541E-01  0.9273E-01
    -11.086  0.1065E-01  0.9381E-01
    -10.985  0.1578E-01  0.9541E-01
    -10.884  0.2702E-01  0.9815E-01
    -10.782  0.3345E-01  0.1015E+00
    -10.681  0.2881E-01  0.1045E+00
    -10.579  0.1970E-01  0.1065E+00
    -10.478  0.1688E-01  0.1082E+00
    -10.376  0.2115E-01  0.1103E+00
    -10.275  0.2650E-01  0.1130E+00
    -10.174  0.3323E-01  0.1164E+00
    -10.072  0.4316E-01  0.1208E+00
     -9.971  0.4850E-01  0.1257E+00
     -9.869  0.4058E-01  0.1298E+00
     -9.768  0.2358E-01  0.1322E+00
     -9.667  0.9914E-02  0.1332E+00
     -9.565  0.6308E-02  0.1338E+00
     -9.464  0.1148E-01  0.1350E+00
     -9.362  0.1965E-01  0.1370E+00
     -9.261  0.2530E-01  0.1395E+00
     -9.160  0.2953E-01  0.1425E+00
     -9.058  0.3420E-01  0.1460E+00
     -8.957  0.3506E-01  0.1496E+00
     -8.855  0.3095E-01  0.1527E+00
     -8.754  0.2777E-01  0.1555E+00
     -8.653  0.2806E-01  0.1584E+00
     -8.551  0.2830E-01  0.1612E+00
     -8.450  0.2510E-01  0.1638E+00
     -8.348  0.1729E-01  0.1655E+00
     -8.247  0.8202E-02  0.1664E+00
     -8.145  0.2495E-02  0.1666E+00
     -8.044  0.4711E-03  0.1667E+00
     -7.943  0.5451E-04  0.1667E+00
     -7.841  0.3842E-05  0.1667E+00
     -7.740  0.1645E-06  0.1667E+00
     -7.638  0.4374E-08  0.1667E+00
     -7.537  0.6582E-08  0.1667E+00
     -7.436  0.2377E-06  0.1667E+00
     -7.334  0.5256E-05  0.1667E+00
     -7.233  0.7054E-04  0.1667E+00
     -7.131  0.5756E-03  0.1667E+00
     -7.030  0.2860E-02  0.1670E+00
     -6.929  0.8667E-02  0.1679E+00
     -6.827  0.1604E-01  0.1695E+00
     -6.726  0.1815E-01  0.1714E+00
     -6.624  0.1276E-01  0.1727E+00
     -6.523  0.6746E-02  0.1733E+00
     -6.422  0.6916E-02  0.1740E+00
     -6.320  0.1310E-01  0.1754E+00
     -6.219  0.1835E-01  0.1772E+00
     -6.117  0.1656E-01  0.1789E+00
     -6.016  0.1194E-01  0.1801E+00
     -5.915  0.1273E-01  0.1814E+00
     -5.813  0.1766E-01  0.1832E+00
     -5.712  0.1861E-01  0.1851E+00
     -5.610  0.1524E-01  0.1866E+00
     -5.509  0.1513E-01  0.1882E+00
     -5.407  0.1846E-01  0.1900E+00
     -5.306  0.1732E-01  0.1918E+00
     -5.205  0.1034E-01  0.1928E+00
     -5.103  0.3794E-02  0.1932E+00
     -5.002  0.8498E-03  0.1933E+00
     -4.900  0.1160E-03  0.1933E+00
     -4.799  0.9629E-05  0.1933E+00
     -4.698  0.4854E-06  0.1933E+00
     -4.596  0.1483E-07  0.1933E+00
     -4.495  0.2742E-09  0.1933E+00
     -4.393  0.3063E-11  0.1933E+00
     -4.292  0.2065E-13  0.1933E+00
     -4.191  0.8758E-16  0.1933E+00
     -4.089  0.0000E+00  0.1933E+00
     -3.988  0.0000E+00  0.1933E+00
     -3.886  0.0000E+00  0.1933E+00
     -3.785  0.0000E+00  0.1933E+00
     -3.684  0.0000E+00  0.1933E+00
     -3.582  0.0000E+00  0.1933E+00
     -3.481  0.0000E+00  0.1933E+00
     -3.379  0.0000E+00  0.1933E+00
     -3.278  0.0000E+00  0.1933E+00
     -3.176  0.0000E+00  0.1933E+00
     -3.075  0.0000E+00  0.1933E+00
     -2.974  0.0000E+00  0.1933E+00
     -2.872  0.0000E+00  0.1933E+00
     -2.771  0.0000E+00  0.1933E+00
     -2.669  0.0000E+00  0.1933E+00
     -2.568  0.0000E+00  0.1933E+00
     -2.467  0.0000E+00  0.1933E+00
     -2.365  0.0000E+00  0.1933E+00
     -2.264  0.1460E-15  0.1933E+00
     -2.162  0.3414E-13  0.1933E+00
     -2.061  0.4825E-11  0.1933E+00
     -1.960  0.4116E-09  0.1933E+00
     -1.858  0.2124E-07  0.1933E+00
     -1.757  0.6640E-06  0.1933E+00
     -1.655  0.1262E-04  0.1933E+00
     -1.554  0.1464E-03  0.1933E+00
     -1.453  0.1046E-02  0.1935E+00
     -1.351  0.4658E-02  0.1939E+00
     -1.250  0.1323E-01  0.1953E+00
     -1.148  0.2477E-01  0.1978E+00
     -1.047  0.3175E-01  0.2010E+00
     -0.945  0.2849E-01  0.2039E+00
     -0.844  0.1786E-01  0.2057E+00
     -0.743  0.8513E-02  0.2066E+00
     -0.641  0.6988E-02  0.2073E+00
     -0.540  0.1442E-01  0.2087E+00
     -0.438  0.2743E-01  0.2115E+00
     -0.337  0.4058E-01  0.2156E+00
     -0.236  0.5059E-01  0.2208E+00
     -0.134  0.5964E-01  0.2268E+00
     -0.033  0.7638E-01  0.2346E+00
      0.069  0.1023E+00  0.2449E+00
      0.170  0.1152E+00  0.2566E+00
      0.271  0.9302E-01  0.2660E+00
      0.373  0.5007E-01  0.2711E+00
      0.474  0.1740E-01  0.2729E+00
      0.576  0.3835E-02  0.2733E+00
      0.677  0.5307E-03  0.2733E+00
      0.778  0.4573E-04  0.2733E+00
      0.880  0.2438E-05  0.2733E+00
      0.981  0.8000E-07  0.2733E+00
      1.083  0.1608E-08  0.2733E+00
      1.184  0.1973E-10  0.2733E+00
      1.285  0.1472E-12  0.2733E+00
      1.387  0.6678E-15  0.2733E+00
      1.488  0.0000E+00  0.2733E+00
      1.590  0.0000E+00  0.2733E+00
      1.691  0.0000E+00  0.2733E+00
      1.793  0.0000E+00  0.2733E+00
      1.894  0.0000E+00  0.2733E+00
      1.995  0.0000E+00  0.2733E+00
      2.097  0.0000E+00  0.2733E+00
      2.198  0.0000E+00  0.2733E+00
