   22   22  300    1
  0.1227273E+04  0.3000000E-08  0.3000000E-08  0.3000000E-08  0.0000000E+00
  1.000000000000000E-004
  CAR 
 unknown system                          
     58      4     41
 
  0.2500000E+00  0.2500000E+00  0.2500000E+00  0.2500000E+00
    1      -26.224331   1.000000
    2      -25.489019   1.000000
    3      -23.457168   1.000000
    4      -22.651575   1.000000
    5      -19.602116   1.000000
    6      -18.284959   1.000000
    7      -17.334802   1.000000
    8      -16.155472   1.000000
    9      -14.740015   1.000000
   10      -13.927938   1.000000
   11      -13.274442   1.000000
   12      -12.533966   1.000000
   13      -11.553585   1.000000
   14      -11.364544   1.000000
   15      -10.892415   1.000000
   16      -10.763087   1.000000
   17      -10.379049   1.000000
   18      -10.125859   1.000000
   19      -10.006312   1.000000
   20       -9.931201   1.000000
   21       -9.364631   1.000000
   22       -9.110253   1.000000
   23       -8.969606   1.000000
   24       -8.706102   1.000000
   25       -8.486034   1.000000
   26       -6.801940   1.000000
   27       -6.248608   1.000000
   28       -5.805965   1.000000
   29       -5.410727   1.000000
   30       -1.154798   0.000000
   31       -1.001070   0.000000
   32       -0.451359   0.000000
   33       -0.286668   0.000000
   34       -0.200909   0.000000
   35       -0.048090   0.000000
   36        0.047558   0.000000
   37        0.110581   0.000000
   38        0.128456   0.000000
   39        0.136211   0.000000
   40        0.184106   0.000000
   41        0.198160   0.000000
 
 -0.2500000E+00  0.2500000E+00  0.2500000E+00  0.2500000E+00
    1      -26.224330   1.000000
    2      -25.489020   1.000000
    3      -23.457169   1.000000
    4      -22.651575   1.000000
    5      -19.602119   1.000000
    6      -18.284957   1.000000
    7      -17.334800   1.000000
    8      -16.155472   1.000000
    9      -14.740012   1.000000
   10      -13.927947   1.000000
   11      -13.274442   1.000000
   12      -12.533965   1.000000
   13      -11.553588   1.000000
   14      -11.364538   1.000000
   15      -10.892401   1.000000
   16      -10.763085   1.000000
   17      -10.379044   1.000000
   18      -10.125868   1.000000
   19      -10.006320   1.000000
   20       -9.931202   1.000000
   21       -9.364635   1.000000
   22       -9.110250   1.000000
   23       -8.969602   1.000000
   24       -8.706108   1.000000
   25       -8.486040   1.000000
   26       -6.801945   1.000000
   27       -6.248613   1.000000
   28       -5.805973   1.000000
   29       -5.410702   1.000000
   30       -1.154806   0.000000
   31       -1.001070   0.000000
   32       -0.451385   0.000000
   33       -0.286678   0.000000
   34       -0.200877   0.000000
   35       -0.048043   0.000000
   36        0.046605   0.000000
   37        0.107303   0.000000
   38        0.131494   0.000000
   39        0.143485   0.000000
   40        0.180955   0.000000
   41        0.195597   0.000000
 
  0.2500000E+00 -0.2500000E+00  0.2500000E+00  0.2500000E+00
    1      -26.224331   1.000000
    2      -25.489019   1.000000
    3      -23.457169   1.000000
    4      -22.651576   1.000000
    5      -19.602118   1.000000
    6      -18.284959   1.000000
    7      -17.334799   1.000000
    8      -16.155473   1.000000
    9      -14.740014   1.000000
   10      -13.927947   1.000000
   11      -13.274445   1.000000
   12      -12.533969   1.000000
   13      -11.553583   1.000000
   14      -11.364537   1.000000
   15      -10.892423   1.000000
   16      -10.763091   1.000000
   17      -10.379049   1.000000
   18      -10.125861   1.000000
   19      -10.006306   1.000000
   20       -9.931195   1.000000
   21       -9.364629   1.000000
   22       -9.110258   1.000000
   23       -8.969605   1.000000
   24       -8.706109   1.000000
   25       -8.486024   1.000000
   26       -6.801938   1.000000
   27       -6.248614   1.000000
   28       -5.805974   1.000000
   29       -5.410722   1.000000
   30       -1.154812   0.000000
   31       -1.001070   0.000000
   32       -0.451355   0.000000
   33       -0.286673   0.000000
   34       -0.200888   0.000000
   35       -0.047645   0.000000
   36        0.043219   0.000000
   37        0.114251   0.000000
   38        0.125821   0.000000
   39        0.145866   0.000000
   40        0.185171   0.000000
   41        0.195972   0.000000
 
 -0.2500000E+00 -0.2500000E+00  0.2500000E+00  0.2500000E+00
    1      -26.224331   1.000000
    2      -25.489023   1.000000
    3      -23.457168   1.000000
    4      -22.651575   1.000000
    5      -19.602119   1.000000
    6      -18.284959   1.000000
    7      -17.334801   1.000000
    8      -16.155471   1.000000
    9      -14.740017   1.000000
   10      -13.927937   1.000000
   11      -13.274442   1.000000
   12      -12.533967   1.000000
   13      -11.553593   1.000000
   14      -11.364540   1.000000
   15      -10.892426   1.000000
   16      -10.763094   1.000000
   17      -10.379038   1.000000
   18      -10.125870   1.000000
   19      -10.006307   1.000000
   20       -9.931206   1.000000
   21       -9.364632   1.000000
   22       -9.110251   1.000000
   23       -8.969603   1.000000
   24       -8.706113   1.000000
   25       -8.486039   1.000000
   26       -6.801931   1.000000
   27       -6.248610   1.000000
   28       -5.805970   1.000000
   29       -5.410714   1.000000
   30       -1.154813   0.000000
   31       -1.001070   0.000000
   32       -0.451365   0.000000
   33       -0.286669   0.000000
   34       -0.200905   0.000000
   35       -0.047709   0.000000
   36        0.043798   0.000000
   37        0.118113   0.000000
   38        0.129272   0.000000
   39        0.136178   0.000000
   40        0.180563   0.000000
   41        0.192739   0.000000
