 vasp.5.4.1 24Jun15 (build Jan 13 2020 12:58:22) complex                        
  
 executed on           IFC91_ompi date 2020.02.03  09:59:13
 running on   15 total cores
 each image running on    1 cores
 distrk:  each k-point on    1 cores,    1 groups
 distr:  one band on NCORES_PER_BAND=   1 cores,    1 groups


--------------------------------------------------------------------------------------------------------


 INCAR:
 POTCAR:    PAW_PBE H 15Jun2001                   
 POTCAR:    PAW_PBE C 08Apr2002                   
 POTCAR:    PAW_PBE N 08Apr2002                   
 POTCAR:    PAW_PBE O 08Apr2002                   
 POTCAR:    PAW_PBE H 15Jun2001                   
   VRHFIN =H: ultrasoft test                                                    
   LEXCH  = PE                                                                  
   EATOM  =    12.4884 eV,    0.9179 Ry                                         
                                                                                
   TITEL  = PAW_PBE H 15Jun2001                                                 
   LULTRA =        F    use ultrasoft PP ?                                      
   IUNSCR =        0    unscreen: 0-lin 1-nonlin 2-no                           
   RPACOR =    0.000    partial core radius                                     
   POMASS =    1.000; ZVAL   =    1.000    mass and valenz                      
   RCORE  =    1.100    outmost cutoff radius                                   
   RWIGS  =    0.700; RWIGS  =    0.370    wigner-seitz radius (au A)           
   ENMAX  =  250.000; ENMIN  =  200.000 eV                                      
   RCLOC  =    0.701    cutoff for local pot                                    
   LCOR   =        T    correct aug charges                                     
   LPAW   =        T    paw PP                                                  
   EAUG   =  400.000                                                            
   RMAX   =    1.123    core radius for proj-oper                               
   RAUG   =    1.200    factor for augmentation sphere                          
   RDEP   =    1.112    radius for radial grids                                 
   RDEPT  =    0.926    core radius for aug-charge                              
                                                                                
   Atomic configuration                                                         
    2 entries                                                                   
     n  l   j            E        occ.                                          
     1  0  0.50        -6.4927   1.0000                                         
     2  1  0.50        -3.4015   0.0000                                         
   Description                                                                  
     l       E           TYP  RCUT    TYP  RCUT                                 
     0     -6.4927494     23  1.100                                             
     0      6.8029130     23  1.100                                             
     1     -4.0817478     23  1.100                                             
  local pseudopotential read in
  atomic valenz-charges read in
  non local Contribution for L=           0  read in
    real space projection operators read in
  non local Contribution for L=           0  read in
    real space projection operators read in
  non local Contribution for L=           1  read in
    real space projection operators read in
    PAW grid and wavefunctions read in
 
   number of l-projection  operators is LMAX  =           3
   number of lm-projection operators is LMMAX =           5
 
 POTCAR:    PAW_PBE C 08Apr2002                   
   VRHFIN =C: s2p2                                                              
   LEXCH  = PE                                                                  
   EATOM  =   147.1560 eV,   10.8157 Ry                                         
                                                                                
   TITEL  = PAW_PBE C 08Apr2002                                                 
   LULTRA =        F    use ultrasoft PP ?                                      
   IUNSCR =        1    unscreen: 0-lin 1-nonlin 2-no                           
   RPACOR =    1.200    partial core radius                                     
   POMASS =   12.011; ZVAL   =    4.000    mass and valenz                      
   RCORE  =    1.500    outmost cutoff radius                                   
   RWIGS  =    1.630; RWIGS  =    0.863    wigner-seitz radius (au A)           
   ENMAX  =  400.000; ENMIN  =  300.000 eV                                      
   ICORE  =        2    local potential                                         
   LCOR   =        T    correct aug charges                                     
   LPAW   =        T    paw PP                                                  
   EAUG   =  644.873                                                            
   DEXC   =    0.000                                                            
   RMAX   =    1.529    core radius for proj-oper                               
   RAUG   =    1.300    factor for augmentation sphere                          
   RDEP   =    1.501    radius for radial grids                                 
   RDEPT  =    1.300    core radius for aug-charge                              
                                                                                
   Atomic configuration                                                         
    4 entries                                                                   
     n  l   j            E        occ.                                          
     1  0  0.50      -273.3789   2.0000                                         
     2  0  0.50       -13.7508   2.0000                                         
     2  1  0.50        -5.2854   2.0000                                         
     3  2  1.50        -5.4423   0.0000                                         
   Description                                                                  
     l       E           TYP  RCUT    TYP  RCUT                                 
     0    -13.7508458     23  1.200                                             
     0     -8.2022199     23  1.200                                             
     1     -5.2854383     23  1.500                                             
     1     34.0145650     23  1.500                                             
     2     -5.4423304      7  1.500                                             
  local pseudopotential read in
  partial core-charges read in
  partial kinetic energy density read in
  atomic valenz-charges read in
  non local Contribution for L=           0  read in
    real space projection operators read in
  non local Contribution for L=           0  read in
    real space projection operators read in
  non local Contribution for L=           1  read in
    real space projection operators read in
  non local Contribution for L=           1  read in
    real space projection operators read in
    PAW grid and wavefunctions read in
 
   number of l-projection  operators is LMAX  =           4
   number of lm-projection operators is LMMAX =           8
 
 POTCAR:    PAW_PBE N 08Apr2002                   
   VRHFIN =N: s2p3                                                              
   LEXCH  = PE                                                                  
   EATOM  =   264.5486 eV,   19.4438 Ry                                         
                                                                                
   TITEL  = PAW_PBE N 08Apr2002                                                 
   LULTRA =        F    use ultrasoft PP ?                                      
   IUNSCR =        1    unscreen: 0-lin 1-nonlin 2-no                           
   RPACOR =    1.200    partial core radius                                     
   POMASS =   14.001; ZVAL   =    5.000    mass and valenz                      
   RCORE  =    1.500    outmost cutoff radius                                   
   RWIGS  =    1.400; RWIGS  =    0.741    wigner-seitz radius (au A)           
   ENMAX  =  400.000; ENMIN  =  300.000 eV                                      
   ICORE  =        2    local potential                                         
   LCOR   =        T    correct aug charges                                     
   LPAW   =        T    paw PP                                                  
   EAUG   =  627.112                                                            
   DEXC   =    0.000                                                            
   RMAX   =    1.529    core radius for proj-oper                               
   RAUG   =    1.300    factor for augmentation sphere                          
   RDEP   =    1.514    radius for radial grids                                 
   RDEPT  =    1.338    core radius for aug-charge                              
                                                                                
   Atomic configuration                                                         
    4 entries                                                                   
     n  l   j            E        occ.                                          
     1  0  0.50      -384.7179   2.0000                                         
     2  0  0.50       -18.5828   2.0000                                         
     2  1  0.50        -7.0898   3.0000                                         
     3  2  1.50        -6.8029   0.0000                                         
   Description                                                                  
     l       E           TYP  RCUT    TYP  RCUT                                 
     0    -18.5828119     23  1.200                                             
     0    -13.5018863     23  1.200                                             
     1     -7.0897853     23  1.500                                             
     1      9.5240782     23  1.500                                             
     2     -6.8029130      7  1.500                                             
  local pseudopotential read in
  partial core-charges read in
  partial kinetic energy density read in
  atomic valenz-charges read in
  non local Contribution for L=           0  read in
    real space projection operators read in
  non local Contribution for L=           0  read in
    real space projection operators read in
  non local Contribution for L=           1  read in
    real space projection operators read in
  non local Contribution for L=           1  read in
    real space projection operators read in
    PAW grid and wavefunctions read in
 
   number of l-projection  operators is LMAX  =           4
   number of lm-projection operators is LMMAX =           8
 
 POTCAR:    PAW_PBE O 08Apr2002                   
   VRHFIN =O: s2p4                                                              
   LEXCH  = PE                                                                  
   EATOM  =   432.3788 eV,   31.7789 Ry                                         
                                                                                
   TITEL  = PAW_PBE O 08Apr2002                                                 
   LULTRA =        F    use ultrasoft PP ?                                      
   IUNSCR =        1    unscreen: 0-lin 1-nonlin 2-no                           
   RPACOR =    1.200    partial core radius                                     
   POMASS =   16.000; ZVAL   =    6.000    mass and valenz                      
   RCORE  =    1.520    outmost cutoff radius                                   
   RWIGS  =    1.550; RWIGS  =    0.820    wigner-seitz radius (au A)           
   ENMAX  =  400.000; ENMIN  =  300.000 eV                                      
   ICORE  =        2    local potential                                         
   LCOR   =        T    correct aug charges                                     
   LPAW   =        T    paw PP                                                  
   EAUG   =  605.392                                                            
   DEXC   =    0.000                                                            
   RMAX   =    1.553    core radius for proj-oper                               
   RAUG   =    1.300    factor for augmentation sphere                          
   RDEP   =    1.550    radius for radial grids                                 
   RDEPT  =    1.329    core radius for aug-charge                              
                                                                                
   Atomic configuration                                                         
    4 entries                                                                   
     n  l   j            E        occ.                                          
     1  0  0.50      -514.6923   2.0000                                         
     2  0  0.50       -23.9615   2.0000                                         
     2  1  0.50        -9.0305   4.0000                                         
     3  2  1.50        -9.5241   0.0000                                         
   Description                                                                  
     l       E           TYP  RCUT    TYP  RCUT                                 
     0    -23.9615318     23  1.200                                             
     0     -9.5240782     23  1.200                                             
     1     -9.0304911     23  1.520                                             
     1      8.1634956     23  1.520                                             
     2     -9.5240782      7  1.500                                             
  local pseudopotential read in
  partial core-charges read in
  partial kinetic energy density read in
  kinetic energy density of atom read in
  atomic valenz-charges read in
  non local Contribution for L=           0  read in
    real space projection operators read in
  non local Contribution for L=           0  read in
    real space projection operators read in
  non local Contribution for L=           1  read in
    real space projection operators read in
  non local Contribution for L=           1  read in
    real space projection operators read in
    PAW grid and wavefunctions read in
 
   number of l-projection  operators is LMAX  =           4
   number of lm-projection operators is LMMAX =           8
 
 Optimization of the real space projectors (new method)

 maximal supplied QI-value         = 34.20
 optimisation between [QCUT,QGAM] = [  9.92, 20.18] = [ 27.55,114.04] Ry 
 Optimized for a Real-space Cutoff    1.26 Angstroem

   l    n(q)    QCUT    max X(q) W(low)/X(q) W(high)/X(q)  e(spline) 
   0      8     9.919    19.460    0.50E-03    0.23E-03    0.29E-06
   0      8     9.919    12.209    0.48E-03    0.23E-03    0.28E-06
   1      7     9.919     4.655    0.17E-03    0.75E-03    0.30E-06
 Optimization of the real space projectors (new method)

 maximal supplied QI-value         = 25.13
 optimisation between [QCUT,QGAM] = [ 10.05, 20.36] = [ 28.30,116.06] Ry 
 Optimized for a Real-space Cutoff    1.30 Angstroem

   l    n(q)    QCUT    max X(q) W(low)/X(q) W(high)/X(q)  e(spline) 
   0      8    10.053   115.676    0.49E-03    0.72E-03    0.18E-06
   0      8    10.053    87.132    0.49E-03    0.71E-03    0.18E-06
   1      7    10.053     4.429    0.32E-03    0.31E-03    0.18E-06
   1      7    10.053     2.733    0.23E-03    0.19E-03    0.20E-06
 Optimization of the real space projectors (new method)

 maximal supplied QI-value         = 25.13
 optimisation between [QCUT,QGAM] = [ 10.05, 20.36] = [ 28.30,116.06] Ry 
 Optimized for a Real-space Cutoff    1.65 Angstroem

   l    n(q)    QCUT    max X(q) W(low)/X(q) W(high)/X(q)  e(spline) 
   0     10    10.053    79.467    0.76E-04    0.72E-04    0.56E-06
   0     10    10.053    66.151    0.76E-04    0.72E-04    0.55E-06
   1     10    10.053     8.350    0.25E-03    0.92E-03    0.41E-05
   1     10    10.053     5.531    0.27E-03    0.10E-02    0.45E-05
 Optimization of the real space projectors (new method)

 maximal supplied QI-value         = 24.76
 optimisation between [QCUT,QGAM] = [ 10.15, 20.30] = [ 28.85,115.39] Ry 
 Optimized for a Real-space Cutoff    1.38 Angstroem

   l    n(q)    QCUT    max X(q) W(low)/X(q) W(high)/X(q)  e(spline) 
   0      8    10.150    20.381    0.22E-03    0.32E-03    0.29E-06
   0      8    10.150    15.268    0.23E-03    0.35E-03    0.30E-06
   1      8    10.150     5.964    0.46E-03    0.53E-03    0.21E-06
   1      8    10.150     5.382    0.38E-03    0.45E-03    0.19E-06
  PAW_PBE H 15Jun2001                   :
 energy of atom  1       EATOM=  -12.4884
 kinetic energy error for atom=    0.0098 (will be added to EATOM!!)
  PAW_PBE C 08Apr2002                   :
 energy of atom  2       EATOM= -147.1560
 kinetic energy error for atom=    0.0288 (will be added to EATOM!!)
  PAW_PBE N 08Apr2002                   :
 energy of atom  3       EATOM= -264.5486
 kinetic energy error for atom=    0.0736 (will be added to EATOM!!)
  PAW_PBE O 08Apr2002                   :
 energy of atom  4       EATOM= -432.3788
 kinetic energy error for atom=    0.1156 (will be added to EATOM!!)
 
 
 POSCAR: H12 C6 N2 O2                            
  positions in direct lattice
  velocities in cartesian coordinates
 exchange correlation table for  LEXCH =        8
   RHO(1)=    0.500       N(1)  =     2000
   RHO(2)=  100.500       N(2)  =     4000

 VTST: version 3.2, (02/03/18)

 CHAIN: initializing optimizer
 
 OPT: Using FIRE optimizer
 OPT: FIRE, Init
 OPT: FIRE, MAXMOVE       0.20000
 OPT: FIRE, TIMESTEP      0.10000
 OPT: FIRE, FTIMEMAX      1.00000
 OPT: FIRE, FTIMEINC      1.10000
 OPT: FIRE, FTIMEDEC      0.50000
 OPT: FIRE, FALPHADEC     0.99000
 OPT: FIRE, FALPHA        0.10000
 OPT: FIRE, FNMIN         5
 
 CHAIN: Read ICHAIN            0
 CHAIN: Running the NEB
 NEB:          SPRING     -5.000000
 NEB:          LCLIMB      T
 NEB:     LTANGENTOLD      F
 NEB:           LDNEB      F
 NEB:        LDNEBORG      F
 NEB:        LNEBCELL      F
 NEB:          EFIRST      0.000000
 NEB:           ELAST      0.000000
 
 POSCAR: H12 C6 N2 O2                            
  positions in direct lattice
  No initial velocities read in
 
 POSCAR: H12 C6 N2 O2                            
  positions in direct lattice
  No initial velocities read in
 


--------------------------------------------------------------------------------------------------------


 ion  position               nearest neighbor table
   1  0.377  0.534  0.495-  13 1.09
   2  0.379  0.486  0.459-  13 1.10
   3  0.382  0.479  0.518-  13 1.10
   4  0.447  0.440  0.499-  19 1.02
   5  0.518  0.426  0.506-  15 1.10
   6  0.571  0.462  0.450-  16 1.10
   7  0.527  0.498  0.433-  16 1.09
   8  0.522  0.439  0.425-  16 1.10
   9  0.511  0.545  0.509-  20 1.03
  10  0.587  0.542  0.575-  18 1.10
  11  0.595  0.570  0.522-  18 1.11
  12  0.555  0.591  0.562-  18 1.10
  13  0.392  0.501  0.490-   1 1.09   2 1.10   3 1.10  14 1.52
  14  0.442  0.506  0.488-  21 1.24  19 1.36  13 1.52
  15  0.514  0.460  0.494-   5 1.10  19 1.47  17 1.54  16 1.54
  16  0.535  0.465  0.448-   7 1.09   8 1.10   6 1.10  15 1.54
  17  0.543  0.487  0.527-  22 1.24  20 1.35  15 1.54
  18  0.570  0.560  0.548-  10 1.10  12 1.10  11 1.11  20 1.44
  19  0.465  0.468  0.495-   4 1.02  14 1.36  15 1.47
  20  0.537  0.532  0.528-   9 1.03  17 1.35  18 1.44
  21  0.459  0.543  0.480-  14 1.24
  22  0.572  0.467  0.548-  17 1.24
 
  LATTYP: Found a simple cubic cell.
 ALAT       =    30.0000000000
  
  Lattice vectors:
  
 A1 = (  30.0000000000,   0.0000000000,   0.0000000000)
 A2 = (   0.0000000000,  30.0000000000,   0.0000000000)
 A3 = (   0.0000000000,   0.0000000000,  30.0000000000)


Analysis of symmetry for initial positions (statically):
=====================================================================
 Subroutine PRICEL returns:
 Original cell was already a primitive cell.
 

 Routine SETGRP: Setting up the symmetry group for a 
 simple cubic supercell.


 Subroutine GETGRP returns: Found  1 space group operations
 (whereof  1 operations were pure point group operations)
 out of a pool of 48 trial point group operations.


The static configuration has the point symmetry C_1 .


Analysis of symmetry for dynamics (positions and initial velocities):
=====================================================================
 Subroutine PRICEL returns:
 Original cell was already a primitive cell.
 

 Routine SETGRP: Setting up the symmetry group for a 
 simple cubic supercell.


 Subroutine GETGRP returns: Found  1 space group operations
 (whereof  1 operations were pure point group operations)
 out of a pool of 48 trial point group operations.


The dynamic configuration has the point symmetry C_1 .
 
 
 KPOINTS: Mo2C                                    

Automatic generation of k-mesh.
Space group operators:
 irot       det(A)        alpha          n_x          n_y          n_z        tau_x        tau_y        tau_z
    1     1.000000     0.000000     1.000000     0.000000     0.000000     0.000000     0.000000     0.000000
 
 Subroutine IBZKPT returns following result:
 ===========================================
 
 Found      4 irreducible k-points:
 
 Following reciprocal coordinates:
            Coordinates               Weight
  0.250000  0.250000  0.250000      2.000000
 -0.250000  0.250000  0.250000      2.000000
  0.250000 -0.250000  0.250000      2.000000
 -0.250000 -0.250000  0.250000      2.000000
 
 Following cartesian coordinates:
            Coordinates               Weight
  0.008333  0.008333  0.008333      2.000000
 -0.008333  0.008333  0.008333      2.000000
  0.008333 -0.008333  0.008333      2.000000
 -0.008333 -0.008333  0.008333      2.000000
 


--------------------------------------------------------------------------------------------------------




 Dimension of arrays:
   k-points           NKPTS =      4   k-points in BZ     NKDIM =      4   number of bands    NBANDS=     41
   number of dos      NEDOS =    301   number of ions     NIONS =     22
   non local maximal  LDIM  =      4   non local SUM 2l+1 LMDIM =      8
   total plane-waves  NPLWV = ******
   max r-space proj   IRMAX =   2395   max aug-charges    IRDMAX=   1821
   dimension x,y,z NGX =   150 NGY =  150 NGZ =  150
   dimension x,y,z NGXF=   300 NGYF=  300 NGZF=  300
   support grid    NGXF=   300 NGYF=  300 NGZF=  300
   ions per type =              12   6   2   2
 NGX,Y,Z   is equivalent  to a cutoff of   8.31,  8.31,  8.31 a.u.
 NGXF,Y,Z  is equivalent  to a cutoff of  16.62, 16.62, 16.62 a.u.


 I would recommend the setting:
   dimension x,y,z NGX =   147 NGY =  147 NGZ =  147
 SYSTEM =  unknown system                          
 POSCAR =  H12 C6 N2 O2                            

 Startparameter for this run:
   NWRITE =      2    write-flag & timer
   PREC   = normal    normal or accurate (medium, high low for compatibility)
   ISTART =      0    job   : 0-new  1-cont  2-samecut
   ICHARG =      2    charge: 1-file 2-atom 10-const
   ISPIN  =      1    spin polarized calculation?
   LNONCOLLINEAR =      F non collinear calculations
   LSORBIT =      F    spin-orbit coupling
   INIWAV =      1    electr: 0-lowe 1-rand  2-diag
   LASPH  =      F    aspherical Exc in radial PAW
   METAGGA=      F    non-selfconsistent MetaGGA calc.

 Electronic Relaxation 1
   ENCUT  =  400.0 eV  29.40 Ry    5.42 a.u.  48.92 48.92 48.92*2*pi/ulx,y,z
   ENINI  =  400.0     initial cutoff
   ENAUG  =  644.9 eV  augmentation charge cutoff
   NELM   =    500;   NELMIN=  6; NELMDL= -5     # of ELM steps 
   EDIFF  = 0.1E-03   stopping-criterion for ELM
   LREAL  =      T    real-space projection
   NLSPLINE    = F    spline interpolate recip. space projectors
   LCOMPAT=      F    compatible to vasp.4.4
   GGA_COMPAT  = T    GGA compatible to vasp.4.4-vasp.4.6
   LMAXPAW     = -100 max onsite density
   LMAXMIX     =    2 max onsite mixed and CHGCAR
   VOSKOWN=      0    Vosko Wilk Nusair interpolation
   ROPT   =   -0.00050  -0.00050  -0.00050  -0.00050
 Ionic relaxation
   EDIFFG = -.1E+00   stopping-criterion for IOM
   NSW    =    300    number of steps for IOM
   NBLOCK =      1;   KBLOCK =    300    inner block; outer block 
   IBRION =      3    ionic relax: 0-MD 1-quasi-New 2-CG
   NFREE  =      0    steps in history (QN), initial steepest desc. (CG)
   ISIF   =      2    stress and relaxation
   IWAVPR =     11    prediction:  0-non 1-charg 2-wave 3-comb
   ISYM   =      2    0-nonsym 1-usesym 2-fastsym
   LCORR  =      T    Harris-Foulkes like correction to forces

   POTIM  = 0.0000    time-step for ionic-motion
   TEIN   =    0.0    initial temperature
   TEBEG  =    0.0;   TEEND  =   0.0 temperature during run
   SMASS  =   2.00    Nose mass-parameter (am)
   estimated Nose-frequenzy (Omega)   =  0.24E+10 period in steps =  0.00 mass=   0.137E-25a.u.
   SCALEE = 1.0000    scale energy and forces
   NPACO  =    256;   APACO  = 16.0  distance and # of slots for P.C.
   PSTRESS=    0.0 pullay stress

  Mass of Ions in am
   POMASS =   1.00 12.01 14.00 16.00
  Ionic Valenz
   ZVAL   =   1.00  4.00  5.00  6.00
  Atomic Wigner-Seitz radii
   RWIGS  =  -1.00 -1.00 -1.00 -1.00
  virtual crystal weights 
   VCA    =   1.00  1.00  1.00  1.00
   NELECT =      58.0000    total number of electrons
   NUPDOWN=      -1.0000    fix difference up-down

 DOS related values:
   EMIN   =  10.00;   EMAX   =-10.00  energy-range for DOS
   EFERMI =   0.00
   ISMEAR =     0;   SIGMA  =   0.20  broadening in eV -4-tet -1-fermi 0-gaus

 Electronic relaxation 2 (details)
   IALGO  =     38    algorithm
   LDIAG  =      T    sub-space diagonalisation (order eigenvalues)
   LSUBROT=      F    optimize rotation matrix (better conditioning)
   TURBO    =      0    0=normal 1=particle mesh
   IRESTART =      0    0=no restart 2=restart with 2 vectors
   NREBOOT  =      0    no. of reboots
   NMIN     =      0    reboot dimension
   EREF     =   0.00    reference energy to select bands
   IMIX   =      4    mixing-type and parameters
     AMIX     =   0.40;   BMIX     =  1.00
     AMIX_MAG =   1.60;   BMIX_MAG =  1.00
     AMIN     =   0.10
     WC   =   100.;   INIMIX=   1;  MIXPRE=   1;  MAXMIX= -45

 Intra band minimization:
   WEIMIN = 0.0010     energy-eigenvalue tresh-hold
   EBREAK =  0.61E-06  absolut break condition
   DEPER  =   0.30     relativ break condition  

   TIME   =   0.40     timestep for ELM

  volume/ion in A,a.u.               =    1227.27      8282.05
  Fermi-wavevector in a.u.,A,eV,Ry     =   0.211234  0.399174  0.607087  0.044620
  Thomas-Fermi vector in A             =   0.980021
 
 Write flags
   LWAVE  =      F    write WAVECAR
   LCHARG =      F    write CHGCAR
   LVTOT  =      F    write LOCPOT, total local potential
   LVHAR  =      F    write LOCPOT, Hartree potential only
   LELF   =      F    write electronic localiz. function (ELF)
   LORBIT =      0    0 simple, 1 ext, 2 COOP (PROOUT)


 Dipole corrections
   LMONO  =      F    monopole corrections only (constant potential shift)
   LDIPOL =      F    correct potential (dipole corrections)
   IDIPOL =      0    1-x, 2-y, 3-z, 4-all directions 
   EPSILON=  1.0000000 bulk dielectric constant

 Exchange correlation treatment:
   GGA     =    PE    GGA type
   LEXCH   =     8    internal setting for exchange type
   VOSKOWN=      0    Vosko Wilk Nusair interpolation
   LHFCALC =     F    Hartree Fock is set to
   LHFONE  =     F    Hartree Fock one center treatment
   AEXX    =    0.0000 exact exchange contribution

 Linear response parameters
   LEPSILON=     F    determine dielectric tensor
   LRPA    =     F    only Hartree local field effects (RPA)
   LNABLA  =     F    use nabla operator in PAW spheres
   LVEL    =     F    velocity operator in full k-point grid
   LINTERFAST=   F  fast interpolation
   KINTER  =     0    interpolate to denser k-point grid
   CSHIFT  =0.1000    complex shift for real part using Kramers Kronig
   OMEGAMAX=  -1.0    maximum frequency
   DEG_THRESHOLD= 0.2000000E-02 threshold for treating states as degnerate
   RTIME   =    0.100 relaxation time in fs

 Orbital magnetization related:
   ORBITALMAG=     F  switch on orbital magnetization
   LCHIMAG   =     F  perturbation theory with respect to B field
   DQ        =  0.001000  dq finite difference perturbation B field



--------------------------------------------------------------------------------------------------------


 quickmin algorithm: (dynamic with friction)
 charge density and potential will be updated during run
 non-spin polarized calculation
 Variant of blocked Davidson
 Davidson routine will perform the subspace rotation
 perform sub-space diagonalisation
    after iterative eigenvector-optimisation
 modified Broyden-mixing scheme, WC =      100.0
 initial mixing is a Kerker type mixing with AMIX =  0.4000 and BMIX =      1.0000
 Hartree-type preconditioning will be used
 using additional bands           12
 real space projection scheme for non local part
 use partial core corrections
 calculate Harris-corrections to forces 
   (improved forces if not selfconsistent)
 use gradient corrections 
 use of overlap-Matrix (Vanderbilt PP)
 Gauss-broadening in eV      SIGMA  =   0.20


--------------------------------------------------------------------------------------------------------


  energy-cutoff  :      400.00
  volume of cell :    27000.00
      direct lattice vectors                 reciprocal lattice vectors
    30.000000000  0.000000000  0.000000000     0.033333333  0.000000000  0.000000000
     0.000000000 30.000000000  0.000000000     0.000000000  0.033333333  0.000000000
     0.000000000  0.000000000 30.000000000     0.000000000  0.000000000  0.033333333

  length of vectors
    30.000000000 30.000000000 30.000000000     0.033333333  0.033333333  0.033333333


 
 k-points in units of 2pi/SCALE and weight: Mo2C                                    
   0.00833333  0.00833333  0.00833333       0.250
  -0.00833333  0.00833333  0.00833333       0.250
   0.00833333 -0.00833333  0.00833333       0.250
  -0.00833333 -0.00833333  0.00833333       0.250
 
 k-points in reciprocal lattice and weights: Mo2C                                    
   0.25000000  0.25000000  0.25000000       0.250
  -0.25000000  0.25000000  0.25000000       0.250
   0.25000000 -0.25000000  0.25000000       0.250
  -0.25000000 -0.25000000  0.25000000       0.250
 
 position of ions in fractional coordinates (direct lattice) 
   0.37668388  0.53391483  0.49494842
   0.37900085  0.48647737  0.45916539
   0.38192088  0.47910465  0.51810341
   0.44687080  0.43981273  0.49854324
   0.51820047  0.42577256  0.50575211
   0.57129127  0.46190040  0.45049828
   0.52683612  0.49753006  0.43330727
   0.52245781  0.43887396  0.42521647
   0.51134220  0.54503117  0.50919525
   0.58721237  0.54215856  0.57465130
   0.59469489  0.56975102  0.52212442
   0.55524601  0.59069601  0.56200675
   0.39167921  0.50095770  0.49035067
   0.44203290  0.50616537  0.48779630
   0.51383390  0.46029829  0.49429975
   0.53489334  0.46495367  0.44755475
   0.54262507  0.48716490  0.52732309
   0.57008805  0.56035139  0.54793840
   0.46539516  0.46789058  0.49486630
   0.53656244  0.53187473  0.52834241
   0.45936317  0.54306140  0.48012748
   0.57221804  0.46696946  0.54800341
 
 position of ions in cartesian coordinates  (Angst):
  11.30051625 16.01744484 14.84845257
  11.37002557 14.59432104 13.77496161
  11.45762631 14.37313963 15.54310238
  13.40612410 13.19438180 14.95629715
  15.54601403 12.77317670 15.17256338
  17.13873809 13.85701206 13.51494840
  15.80508353 14.92590172 12.99921805
  15.67373442 13.16621873 12.75649423
  15.34026615 16.35093517 15.27585761
  17.61637114 16.26475671 17.23953901
  17.84084669 17.09253051 15.66373269
  16.65738031 17.72088016 16.86020245
  11.75037617 15.02873102 14.71052008
  13.26098692 15.18496105 14.63388900
  15.41501687 13.80894883 14.82899249
  16.04680010 13.94861000 13.42664262
  16.27875210 14.61494701 15.81969268
  17.10264146 16.81054169 16.43815187
  13.96185472 14.03671746 14.84598912
  16.09687316 15.95624176 15.85027226
  13.78089518 16.29184206 14.40382443
  17.16654119 14.00908371 16.44010228
 


--------------------------------------------------------------------------------------------------------


 k-point  1 :   0.2500 0.2500 0.2500  plane waves:  490454
 k-point  2 :  -0.2500 0.2500 0.2500  plane waves:  490454
 k-point  3 :   0.2500-0.2500 0.2500  plane waves:  490454
 k-point  4 :  -0.2500-0.2500 0.2500  plane waves:  490454

 maximum and minimum number of plane-waves per node :    490454   490454

 maximum number of plane-waves:    490454
 maximum index in each direction: 
   IXMAX=   49   IYMAX=   49   IZMAX=   48
   IXMIN=  -49   IYMIN=  -49   IZMIN=  -49

 WARNING: aliasing errors must be expected set NGX to 198 to avoid them
 WARNING: aliasing errors must be expected set NGY to 198 to avoid them
 WARNING: aliasing errors must be expected set NGZ to 196 to avoid them
 aliasing errors are usually negligible using standard VASP settings
 and one can safely disregard these warnings

 serial   3D FFT for wavefunctions
 parallel 3D FFT for charge:
    minimum data exchange during FFTs selected (reduces bandwidth)


 total amount of memory used by VASP on root node  4333708. kBytes
========================================================================

   base      :      30000. kBytes
   nonlr-proj:       2403. kBytes
   fftplans  :     924480. kBytes
   grid      :    2089440. kBytes
   one-center:         67. kBytes
   wavefun   :    1287318. kBytes
 
     INWAV:  cpu time    0.0010: real time    0.0003
 Broyden mixing: mesh for mixing (old mesh)
   NGX = 97   NGY = 97   NGZ = 97
  (NGX  =300   NGY  =300   NGZ  =300)
  gives a total of 912673 points

 initial charge density was supplied:
 charge density of overlapping atoms calculated
 number of electron      58.0000000 magnetization 
 keeping initial charge density in first step


--------------------------------------------------------------------------------------------------------


 Maximum index for non-local projection operator         2277
 Maximum index for augmentation-charges         1575 (set IRDMAX)


--------------------------------------------------------------------------------------------------------


 First call to EWALD:  gamma=   0.059
 Maximum number of real-space cells 3x 3x 3
 Maximum number of reciprocal cells 3x 3x 3

 FEWALD executed in parallel
    FEWALD:  cpu time    0.0050: real time    0.0047


----------------------------------------- Iteration    1(   1)  ---------------------------------------


    POTLOK:  cpu time   19.2001: real time   19.1839
    SETDIJ:  cpu time    0.0280: real time    0.0283
     EDDAV:  cpu time  258.4577: real time  258.2433
       DOS:  cpu time    0.0010: real time    0.0009
    --------------------------------------------
      LOOP:  cpu time  277.6898: real time  277.4606

 eigenvalue-minimisations  :   408
 total energy-change (2. order) : 0.5801991E+03  (-0.8277897E+03)
 number of electron      58.0000000 magnetization 
 augmentation part       58.0000000 magnetization 

 Free energy of the ion-electron system (eV)
  ---------------------------------------------------
  alpha Z        PSCENC =         0.51957394
  Ewald energy   TEWEN  =      6122.47215521
  -Hartree energ DENC   =     -7864.74523595
  -exchange      EXHF   =         0.00000000
  -V(xc)+E(xc)   XCENC  =       202.09007352
  PAW double counting   =      1779.70502452    -1789.20730229
  entropy T*S    EENTRO =        -0.78418836
  eigenvalues    EBANDS =      -295.83430844
  atomic energy  EATOM  =      2425.98333211
  Solvation  Ediel_sol  =         0.00000000
  ---------------------------------------------------
  free energy    TOTEN  =       580.19912426 eV

  energy without entropy =      580.98331262  energy(sigma->0) =      580.59121844


--------------------------------------------------------------------------------------------------------




----------------------------------------- Iteration    1(   2)  ---------------------------------------


     EDDAV:  cpu time  345.2935: real time  345.0080
       DOS:  cpu time    0.0000: real time    0.0008
    --------------------------------------------
      LOOP:  cpu time  345.2945: real time  345.0114

 eigenvalue-minimisations  :   581
 total energy-change (2. order) :-0.3337340E+03  (-0.3234856E+03)
 number of electron      58.0000000 magnetization 
 augmentation part       58.0000000 magnetization 

 Free energy of the ion-electron system (eV)
  ---------------------------------------------------
  alpha Z        PSCENC =         0.51957394
  Ewald energy   TEWEN  =      6122.47215521
  -Hartree energ DENC   =     -7864.74523595
  -exchange      EXHF   =         0.00000000
  -V(xc)+E(xc)   XCENC  =       202.09007352
  PAW double counting   =      1779.70502452    -1789.20730229
  entropy T*S    EENTRO =        -0.43363604
  eigenvalues    EBANDS =      -629.91886695
  atomic energy  EATOM  =      2425.98333211
  Solvation  Ediel_sol  =         0.00000000
  ---------------------------------------------------
  free energy    TOTEN  =       246.46511807 eV

  energy without entropy =      246.89875411  energy(sigma->0) =      246.68193609


--------------------------------------------------------------------------------------------------------




----------------------------------------- Iteration    1(   3)  ---------------------------------------


     EDDAV:  cpu time  297.7287: real time  297.4820
       DOS:  cpu time    0.0000: real time    0.0005
    --------------------------------------------
      LOOP:  cpu time  297.7307: real time  297.4851

 eigenvalue-minimisations  :   488
 total energy-change (2. order) :-0.2965226E+03  (-0.2884481E+03)
 number of electron      58.0000000 magnetization 
 augmentation part       58.0000000 magnetization 

 Free energy of the ion-electron system (eV)
  ---------------------------------------------------
  alpha Z        PSCENC =         0.51957394
  Ewald energy   TEWEN  =      6122.47215521
  -Hartree energ DENC   =     -7864.74523595
  -exchange      EXHF   =         0.00000000
  -V(xc)+E(xc)   XCENC  =       202.09007352
  PAW double counting   =      1779.70502452    -1789.20730229
  entropy T*S    EENTRO =        -0.00000001
  eigenvalues    EBANDS =      -926.87514060
  atomic energy  EATOM  =      2425.98333211
  Solvation  Ediel_sol  =         0.00000000
  ---------------------------------------------------
  free energy    TOTEN  =       -50.05751956 eV

  energy without entropy =      -50.05751955  energy(sigma->0) =      -50.05751955


--------------------------------------------------------------------------------------------------------




----------------------------------------- Iteration    1(   4)  ---------------------------------------


     EDDAV:  cpu time  251.9487: real time  251.7392
       DOS:  cpu time    0.0000: real time    0.0005
    --------------------------------------------
      LOOP:  cpu time  251.9497: real time  251.7425

 eigenvalue-minimisations  :   397
 total energy-change (2. order) :-0.8713994E+02  (-0.8703412E+02)
 number of electron      58.0000000 magnetization 
 augmentation part       58.0000000 magnetization 

 Free energy of the ion-electron system (eV)
  ---------------------------------------------------
  alpha Z        PSCENC =         0.51957394
  Ewald energy   TEWEN  =      6122.47215521
  -Hartree energ DENC   =     -7864.74523595
  -exchange      EXHF   =         0.00000000
  -V(xc)+E(xc)   XCENC  =       202.09007352
  PAW double counting   =      1779.70502452    -1789.20730229
  entropy T*S    EENTRO =         0.00000000
  eigenvalues    EBANDS =     -1014.01508420
  atomic energy  EATOM  =      2425.98333211
  Solvation  Ediel_sol  =         0.00000000
  ---------------------------------------------------
  free energy    TOTEN  =      -137.19746314 eV

  energy without entropy =     -137.19746314  energy(sigma->0) =     -137.19746314


--------------------------------------------------------------------------------------------------------




----------------------------------------- Iteration    1(   5)  ---------------------------------------


     EDDAV:  cpu time  285.9795: real time  285.7425
       DOS:  cpu time    0.0000: real time    0.0005
    CHARGE:  cpu time   16.4295: real time   16.4159
    MIXING:  cpu time    0.5959: real time    0.5954
    --------------------------------------------
      LOOP:  cpu time  303.0069: real time  302.7579

 eigenvalue-minimisations  :   464
 total energy-change (2. order) :-0.4599455E+01  (-0.4588290E+01)
 number of electron      58.0000015 magnetization 
 augmentation part        2.9716921 magnetization 

 Broyden mixing:
  rms(total) = 0.19581E+01    rms(broyden)= 0.19559E+01
  rms(prec ) = 0.20334E+01
  weight for this iteration     100.00

 Free energy of the ion-electron system (eV)
  ---------------------------------------------------
  alpha Z        PSCENC =         0.51957394
  Ewald energy   TEWEN  =      6122.47215521
  -Hartree energ DENC   =     -7864.74523595
  -exchange      EXHF   =         0.00000000
  -V(xc)+E(xc)   XCENC  =       202.09007352
  PAW double counting   =      1779.70502452    -1789.20730229
  entropy T*S    EENTRO =         0.00000000
  eigenvalues    EBANDS =     -1018.61453952
  atomic energy  EATOM  =      2425.98333211
  Solvation  Ediel_sol  =         0.00000000
  ---------------------------------------------------
  free energy    TOTEN  =      -141.79691846 eV

  energy without entropy =     -141.79691846  energy(sigma->0) =     -141.79691846


--------------------------------------------------------------------------------------------------------




----------------------------------------- Iteration    1(   6)  ---------------------------------------


    POTLOK:  cpu time   18.1382: real time   18.1232
    SETDIJ:  cpu time    0.0290: real time    0.0284
     EDDAV:  cpu time  258.8636: real time  258.6498
       DOS:  cpu time    0.0000: real time    0.0005
    CHARGE:  cpu time   16.3055: real time   16.2915
    MIXING:  cpu time    0.6149: real time    0.6154
    --------------------------------------------
      LOOP:  cpu time  293.9533: real time  293.7118

 eigenvalue-minimisations  :   408
 total energy-change (2. order) : 0.1015727E+02  (-0.2381095E+01)
 number of electron      58.0000009 magnetization 
 augmentation part        2.6313428 magnetization 

 Broyden mixing:
  rms(total) = 0.99737E+00    rms(broyden)= 0.99692E+00
  rms(prec ) = 0.10256E+01
  weight for this iteration     100.00

 eigenvalues of (default mixing * dielectric matrix)
  average eigenvalue GAMMA=   1.2793
  1.2793

 Free energy of the ion-electron system (eV)
  ---------------------------------------------------
  alpha Z        PSCENC =         0.51957394
  Ewald energy   TEWEN  =      6122.47215521
  -Hartree energ DENC   =     -7979.52499809
  -exchange      EXHF   =         0.00000000
  -V(xc)+E(xc)   XCENC  =       208.17888381
  PAW double counting   =      2775.90816933    -2786.76750063
  entropy T*S    EENTRO =         0.00000000
  eigenvalues    EBANDS =      -898.40925933
  atomic energy  EATOM  =      2425.98333211
  Solvation  Ediel_sol  =         0.00000000
  ---------------------------------------------------
  free energy    TOTEN  =      -131.63964365 eV

  energy without entropy =     -131.63964365  energy(sigma->0) =     -131.63964365


--------------------------------------------------------------------------------------------------------




----------------------------------------- Iteration    1(   7)  ---------------------------------------


    POTLOK:  cpu time   18.1362: real time   18.1207
    SETDIJ:  cpu time    0.0280: real time    0.0285
     EDDAV:  cpu time  267.2084: real time  266.9858
       DOS:  cpu time    0.0000: real time    0.0005
    CHARGE:  cpu time   16.3615: real time   16.3481
    MIXING:  cpu time    0.6659: real time    0.6646
    --------------------------------------------
      LOOP:  cpu time  302.4020: real time  302.1515

 eigenvalue-minimisations  :   424
 total energy-change (2. order) : 0.1758027E+01  (-0.4500873E+00)
 number of electron      58.0000009 magnetization 
 augmentation part        2.6188774 magnetization 

 Broyden mixing:
  rms(total) = 0.51578E+00    rms(broyden)= 0.51567E+00
  rms(prec ) = 0.52843E+00
  weight for this iteration     100.00

 eigenvalues of (default mixing * dielectric matrix)
  average eigenvalue GAMMA=   1.5733
  1.1075  2.0391

 Free energy of the ion-electron system (eV)
  ---------------------------------------------------
  alpha Z        PSCENC =         0.51957394
  Ewald energy   TEWEN  =      6122.47215521
  -Hartree energ DENC   =     -8041.62938220
  -exchange      EXHF   =         0.00000000
  -V(xc)+E(xc)   XCENC  =       211.22030923
  PAW double counting   =      3745.93954128    -3757.07163148
  entropy T*S    EENTRO =         0.00000000
  eigenvalues    EBANDS =      -837.31551483
  atomic energy  EATOM  =      2425.98333211
  Solvation  Ediel_sol  =         0.00000000
  ---------------------------------------------------
  free energy    TOTEN  =      -129.88161674 eV

  energy without entropy =     -129.88161674  energy(sigma->0) =     -129.88161674


--------------------------------------------------------------------------------------------------------




----------------------------------------- Iteration    1(   8)  ---------------------------------------


    POTLOK:  cpu time   18.0433: real time   18.0283
    SETDIJ:  cpu time    0.0280: real time    0.0284
     EDDAV:  cpu time  271.3897: real time  271.1642
       DOS:  cpu time    0.0000: real time    0.0005
    CHARGE:  cpu time   16.3375: real time   16.3241
    MIXING:  cpu time    0.6839: real time    0.6832
    --------------------------------------------
      LOOP:  cpu time  306.4834: real time  306.2317

 eigenvalue-minimisations  :   432
 total energy-change (2. order) : 0.4905241E+00  (-0.8702391E-01)
 number of electron      58.0000010 magnetization 
 augmentation part        2.5916684 magnetization 

 Broyden mixing:
  rms(total) = 0.15160E+00    rms(broyden)= 0.15153E+00
  rms(prec ) = 0.15932E+00
  weight for this iteration     100.00

 eigenvalues of (default mixing * dielectric matrix)
  average eigenvalue GAMMA=   1.5422
  2.3837  0.9516  1.2913

 Free energy of the ion-electron system (eV)
  ---------------------------------------------------
  alpha Z        PSCENC =         0.51957394
  Ewald energy   TEWEN  =      6122.47215521
  -Hartree energ DENC   =     -8082.37722623
  -exchange      EXHF   =         0.00000000
  -V(xc)+E(xc)   XCENC  =       213.35228691
  PAW double counting   =      4572.23781994    -4583.55350375
  entropy T*S    EENTRO =         0.00000000
  eigenvalues    EBANDS =      -798.02553074
  atomic energy  EATOM  =      2425.98333211
  Solvation  Ediel_sol  =         0.00000000
  ---------------------------------------------------
  free energy    TOTEN  =      -129.39109262 eV

  energy without entropy =     -129.39109262  energy(sigma->0) =     -129.39109262


--------------------------------------------------------------------------------------------------------




----------------------------------------- Iteration    1(   9)  ---------------------------------------


    POTLOK:  cpu time   18.1952: real time   18.1797
    SETDIJ:  cpu time    0.0280: real time    0.0284
     EDDAV:  cpu time  287.8292: real time  287.5899
       DOS:  cpu time    0.0000: real time    0.0005
    CHARGE:  cpu time   16.3235: real time   16.3102
    MIXING:  cpu time    0.7219: real time    0.7205
    --------------------------------------------
      LOOP:  cpu time  323.0999: real time  322.8322

 eigenvalue-minimisations  :   464
 total energy-change (2. order) : 0.6701408E-01  (-0.1017232E-01)
 number of electron      58.0000009 magnetization 
 augmentation part        2.5833108 magnetization 

 Broyden mixing:
  rms(total) = 0.56769E-01    rms(broyden)= 0.56740E-01
  rms(prec ) = 0.65391E-01
  weight for this iteration     100.00

 eigenvalues of (default mixing * dielectric matrix)
  average eigenvalue GAMMA=   1.5203
  2.2053  1.0531  1.0531  1.7696

 Free energy of the ion-electron system (eV)
  ---------------------------------------------------
  alpha Z        PSCENC =         0.51957394
  Ewald energy   TEWEN  =      6122.47215521
  -Hartree energ DENC   =     -8095.81076144
  -exchange      EXHF   =         0.00000000
  -V(xc)+E(xc)   XCENC  =       213.89707787
  PAW double counting   =      4801.33050195    -4812.61911752
  entropy T*S    EENTRO =         0.00000000
  eigenvalues    EBANDS =      -785.09684067
  atomic energy  EATOM  =      2425.98333211
  Solvation  Ediel_sol  =         0.00000000
  ---------------------------------------------------
  free energy    TOTEN  =      -129.32407855 eV

  energy without entropy =     -129.32407855  energy(sigma->0) =     -129.32407855


--------------------------------------------------------------------------------------------------------




----------------------------------------- Iteration    1(  10)  ---------------------------------------


    POTLOK:  cpu time   18.2122: real time   18.1971
    SETDIJ:  cpu time    0.0290: real time    0.0284
     EDDAV:  cpu time  275.5131: real time  275.2845
       DOS:  cpu time    0.0000: real time    0.0005
    CHARGE:  cpu time   16.3105: real time   16.2971
    MIXING:  cpu time    0.7729: real time    0.7719
    --------------------------------------------
      LOOP:  cpu time  310.8387: real time  310.8724

 eigenvalue-minimisations  :   440
 total energy-change (2. order) : 0.1161330E-01  (-0.2482202E-02)
 number of electron      58.0000010 magnetization 
 augmentation part        2.5894753 magnetization 

 Broyden mixing:
  rms(total) = 0.25745E-01    rms(broyden)= 0.25722E-01
  rms(prec ) = 0.35801E-01
  weight for this iteration     100.00

 eigenvalues of (default mixing * dielectric matrix)
  average eigenvalue GAMMA=   1.4862
  2.1643  2.1643  0.9758  0.9758  1.1508

 Free energy of the ion-electron system (eV)
  ---------------------------------------------------
  alpha Z        PSCENC =         0.51957394
  Ewald energy   TEWEN  =      6122.47215521
  -Hartree energ DENC   =     -8100.90910626
  -exchange      EXHF   =         0.00000000
  -V(xc)+E(xc)   XCENC  =       213.91263320
  PAW double counting   =      4795.75256987    -4806.99180459
  entropy T*S    EENTRO =         0.00000000
  eigenvalues    EBANDS =      -780.05181873
  atomic energy  EATOM  =      2425.98333211
  Solvation  Ediel_sol  =         0.00000000
  ---------------------------------------------------
  free energy    TOTEN  =      -129.31246524 eV

  energy without entropy =     -129.31246524  energy(sigma->0) =     -129.31246524


--------------------------------------------------------------------------------------------------------




----------------------------------------- Iteration    1(  11)  ---------------------------------------


    POTLOK:  cpu time   18.1442: real time   18.1300
    SETDIJ:  cpu time    0.0280: real time    0.0283
     EDDAV:  cpu time  283.5039: real time  283.2677
       DOS:  cpu time    0.0000: real time    0.0005
    CHARGE:  cpu time   16.3435: real time   16.3295
    MIXING:  cpu time    0.8179: real time    0.8174
    --------------------------------------------
      LOOP:  cpu time  318.8395: real time  318.5772

 eigenvalue-minimisations  :   456
 total energy-change (2. order) : 0.5191584E-02  (-0.7849426E-03)
 number of electron      58.0000010 magnetization 
 augmentation part        2.5854288 magnetization 

 Broyden mixing:
  rms(total) = 0.16229E-01    rms(broyden)= 0.16222E-01
  rms(prec ) = 0.25047E-01
  weight for this iteration     100.00

 eigenvalues of (default mixing * dielectric matrix)
  average eigenvalue GAMMA=   1.5457
  2.4702  2.4702  0.9511  0.9511  1.2158  1.2158

 Free energy of the ion-electron system (eV)
  ---------------------------------------------------
  alpha Z        PSCENC =         0.51957394
  Ewald energy   TEWEN  =      6122.47215521
  -Hartree energ DENC   =     -8106.66797438
  -exchange      EXHF   =         0.00000000
  -V(xc)+E(xc)   XCENC  =       214.01449420
  PAW double counting   =      4798.15664212    -4809.39509907
  entropy T*S    EENTRO =         0.00000000
  eigenvalues    EBANDS =      -774.39039780
  atomic energy  EATOM  =      2425.98333211
  Solvation  Ediel_sol  =         0.00000000
  ---------------------------------------------------
  free energy    TOTEN  =      -129.30727366 eV

  energy without entropy =     -129.30727366  energy(sigma->0) =     -129.30727366


--------------------------------------------------------------------------------------------------------




----------------------------------------- Iteration    1(  12)  ---------------------------------------


    POTLOK:  cpu time   18.1942: real time   18.1800
    SETDIJ:  cpu time    0.0290: real time    0.0284
     EDDAV:  cpu time  238.0158: real time  237.8174
       DOS:  cpu time    0.0000: real time    0.0005
    CHARGE:  cpu time   16.4405: real time   16.4271
    MIXING:  cpu time    0.8419: real time    0.8412
    --------------------------------------------
      LOOP:  cpu time  273.5224: real time  273.2981

 eigenvalue-minimisations  :   367
 total energy-change (2. order) :-0.5545952E-03  (-0.5661173E-03)
 number of electron      58.0000010 magnetization 
 augmentation part        2.5850466 magnetization 

 Broyden mixing:
  rms(total) = 0.98573E-02    rms(broyden)= 0.98528E-02
  rms(prec ) = 0.16065E-01
  weight for this iteration     100.00

 eigenvalues of (default mixing * dielectric matrix)
  average eigenvalue GAMMA=   1.5894
  2.7091  2.7091  1.3423  1.2142  1.2142  0.9685  0.9685

 Free energy of the ion-electron system (eV)
  ---------------------------------------------------
  alpha Z        PSCENC =         0.51957394
  Ewald energy   TEWEN  =      6122.47215521
  -Hartree energ DENC   =     -8113.34472098
  -exchange      EXHF   =         0.00000000
  -V(xc)+E(xc)   XCENC  =       214.09953321
  PAW double counting   =      4793.70941861    -4804.93825221
  entropy T*S    EENTRO =         0.00000000
  eigenvalues    EBANDS =      -767.80886814
  atomic energy  EATOM  =      2425.98333211
  Solvation  Ediel_sol  =         0.00000000
  ---------------------------------------------------
  free energy    TOTEN  =      -129.30782826 eV

  energy without entropy =     -129.30782826  energy(sigma->0) =     -129.30782826


--------------------------------------------------------------------------------------------------------




----------------------------------------- Iteration    1(  13)  ---------------------------------------


    POTLOK:  cpu time   18.2492: real time   18.2355
    SETDIJ:  cpu time    0.0290: real time    0.0284
     EDDAV:  cpu time  279.9604: real time  279.7267
       DOS:  cpu time    0.0000: real time    0.0005
    CHARGE:  cpu time   16.4015: real time   16.3874
    MIXING:  cpu time    0.8959: real time    0.8958
    --------------------------------------------
      LOOP:  cpu time  315.5380: real time  315.2776

 eigenvalue-minimisations  :   448
 total energy-change (2. order) :-0.5991059E-02  (-0.4435690E-03)
 number of electron      58.0000010 magnetization 
 augmentation part        2.5834754 magnetization 

 Broyden mixing:
  rms(total) = 0.60072E-02    rms(broyden)= 0.60016E-02
  rms(prec ) = 0.97905E-02
  weight for this iteration     100.00

 eigenvalues of (default mixing * dielectric matrix)
  average eigenvalue GAMMA=   1.6922
  4.0481  2.4922  1.5956  1.4129  0.9993  0.9993  0.8934  1.0967

 Free energy of the ion-electron system (eV)
  ---------------------------------------------------
  alpha Z        PSCENC =         0.51957394
  Ewald energy   TEWEN  =      6122.47215521
  -Hartree energ DENC   =     -8118.84652847
  -exchange      EXHF   =         0.00000000
  -V(xc)+E(xc)   XCENC  =       214.16468187
  PAW double counting   =      4788.14047052    -4799.36958024
  entropy T*S    EENTRO =         0.00000000
  eigenvalues    EBANDS =      -762.37792426
  atomic energy  EATOM  =      2425.98333211
  Solvation  Ediel_sol  =         0.00000000
  ---------------------------------------------------
  free energy    TOTEN  =      -129.31381932 eV

  energy without entropy =     -129.31381932  energy(sigma->0) =     -129.31381932


--------------------------------------------------------------------------------------------------------




----------------------------------------- Iteration    1(  14)  ---------------------------------------


    POTLOK:  cpu time   18.2202: real time   18.2055
    SETDIJ:  cpu time    0.0290: real time    0.0284
     EDDAV:  cpu time  251.1338: real time  250.9257
       DOS:  cpu time    0.0000: real time    0.0005
    CHARGE:  cpu time   16.3215: real time   16.3083
    MIXING:  cpu time    0.9529: real time    0.9528
    --------------------------------------------
      LOOP:  cpu time  286.6604: real time  286.4245

 eigenvalue-minimisations  :   392
 total energy-change (2. order) :-0.6463156E-02  (-0.1780882E-03)
 number of electron      58.0000010 magnetization 
 augmentation part        2.5830576 magnetization 

 Broyden mixing:
  rms(total) = 0.39332E-02    rms(broyden)= 0.39299E-02
  rms(prec ) = 0.60431E-02
  weight for this iteration     100.00

 eigenvalues of (default mixing * dielectric matrix)
  average eigenvalue GAMMA=   1.8102
  5.0283  2.4139  2.2124  1.2297  1.2297  1.1485  1.0469  0.9910  0.9910

 Free energy of the ion-electron system (eV)
  ---------------------------------------------------
  alpha Z        PSCENC =         0.51957394
  Ewald energy   TEWEN  =      6122.47215521
  -Hartree energ DENC   =     -8122.41410596
  -exchange      EXHF   =         0.00000000
  -V(xc)+E(xc)   XCENC  =       214.18975237
  PAW double counting   =      4782.61072781    -4793.83686803
  entropy T*S    EENTRO =         0.00000000
  eigenvalues    EBANDS =      -758.84484993
  atomic energy  EATOM  =      2425.98333211
  Solvation  Ediel_sol  =         0.00000000
  ---------------------------------------------------
  free energy    TOTEN  =      -129.32028247 eV

  energy without entropy =     -129.32028247  energy(sigma->0) =     -129.32028247


--------------------------------------------------------------------------------------------------------




----------------------------------------- Iteration    1(  15)  ---------------------------------------


    POTLOK:  cpu time   18.3802: real time   18.3656
    SETDIJ:  cpu time    0.0280: real time    0.0283
     EDDAV:  cpu time  264.3778: real time  264.1576
       DOS:  cpu time    0.0010: real time    0.0005
    CHARGE:  cpu time   16.3365: real time   16.3237
    MIXING:  cpu time    1.0238: real time    1.0228
    --------------------------------------------
      LOOP:  cpu time  300.1494: real time  299.9018

 eigenvalue-minimisations  :   418
 total energy-change (2. order) :-0.7948395E-02  (-0.9540440E-04)
 number of electron      58.0000010 magnetization 
 augmentation part        2.5826288 magnetization 

 Broyden mixing:
  rms(total) = 0.24969E-02    rms(broyden)= 0.24953E-02
  rms(prec ) = 0.36656E-02
  weight for this iteration     100.00

 eigenvalues of (default mixing * dielectric matrix)
  average eigenvalue GAMMA=   1.8911
  5.6398  2.7165  2.3399  1.7812  1.3090  1.0239  1.0239  1.0936  1.0250  0.9582

 Free energy of the ion-electron system (eV)
  ---------------------------------------------------
  alpha Z        PSCENC =         0.51957394
  Ewald energy   TEWEN  =      6122.47215521
  -Hartree energ DENC   =     -8124.26458199
  -exchange      EXHF   =         0.00000000
  -V(xc)+E(xc)   XCENC  =       214.19162483
  PAW double counting   =      4781.65615495    -4792.88125600
  entropy T*S    EENTRO =         0.00000000
  eigenvalues    EBANDS =      -757.00523393
  atomic energy  EATOM  =      2425.98333211
  Solvation  Ediel_sol  =         0.00000000
  ---------------------------------------------------
  free energy    TOTEN  =      -129.32823087 eV

  energy without entropy =     -129.32823087  energy(sigma->0) =     -129.32823087


--------------------------------------------------------------------------------------------------------




----------------------------------------- Iteration    1(  16)  ---------------------------------------


    POTLOK:  cpu time   18.2912: real time   18.2772
    SETDIJ:  cpu time    0.0290: real time    0.0284
     EDDAV:  cpu time  229.4471: real time  229.2580
       DOS:  cpu time    0.0010: real time    0.0005
    CHARGE:  cpu time   16.2865: real time   16.2731
    MIXING:  cpu time    1.0538: real time    1.0531
    --------------------------------------------
      LOOP:  cpu time  265.1097: real time  264.8967

 eigenvalue-minimisations  :   350
 total energy-change (2. order) :-0.6101931E-02  (-0.4802622E-04)
 number of electron      58.0000010 magnetization 
 augmentation part        2.5829047 magnetization 

 Broyden mixing:
  rms(total) = 0.13882E-02    rms(broyden)= 0.13872E-02
  rms(prec ) = 0.20719E-02
  weight for this iteration     100.00

 eigenvalues of (default mixing * dielectric matrix)
  average eigenvalue GAMMA=   1.9317
  6.2239  3.1888  2.3522  1.9145  1.2882  1.2089  1.2089  1.0016  1.0016  0.9299
  0.9299

 Free energy of the ion-electron system (eV)
  ---------------------------------------------------
  alpha Z        PSCENC =         0.51957394
  Ewald energy   TEWEN  =      6122.47215521
  -Hartree energ DENC   =     -8124.89425554
  -exchange      EXHF   =         0.00000000
  -V(xc)+E(xc)   XCENC  =       214.17972923
  PAW double counting   =      4781.63271764    -4792.85624244
  entropy T*S    EENTRO =         0.00000000
  eigenvalues    EBANDS =      -756.37134295
  atomic energy  EATOM  =      2425.98333211
  Solvation  Ediel_sol  =         0.00000000
  ---------------------------------------------------
  free energy    TOTEN  =      -129.33433280 eV

  energy without entropy =     -129.33433280  energy(sigma->0) =     -129.33433280


--------------------------------------------------------------------------------------------------------




----------------------------------------- Iteration    1(  17)  ---------------------------------------


    POTLOK:  cpu time   18.2862: real time   18.2717
    SETDIJ:  cpu time    0.0280: real time    0.0283
     EDDAV:  cpu time  223.5630: real time  223.3795
       DOS:  cpu time    0.0000: real time    0.0005
    CHARGE:  cpu time   16.2855: real time   16.2721
    MIXING:  cpu time    1.1158: real time    1.1149
    --------------------------------------------
      LOOP:  cpu time  259.2816: real time  259.0702

 eigenvalue-minimisations  :   336
 total energy-change (2. order) :-0.2642199E-02  (-0.1307761E-04)
 number of electron      58.0000010 magnetization 
 augmentation part        2.5827721 magnetization 

 Broyden mixing:
  rms(total) = 0.95541E-03    rms(broyden)= 0.95502E-03
  rms(prec ) = 0.13839E-02
  weight for this iteration     100.00

 eigenvalues of (default mixing * dielectric matrix)
  average eigenvalue GAMMA=   2.0059
  7.0316  3.5460  2.2551  2.2551  1.5079  1.5079  1.0317  1.0317  1.0503  1.0503
  0.9017  0.9017

 Free energy of the ion-electron system (eV)
  ---------------------------------------------------
  alpha Z        PSCENC =         0.51957394
  Ewald energy   TEWEN  =      6122.47215521
  -Hartree energ DENC   =     -8125.22132779
  -exchange      EXHF   =         0.00000000
  -V(xc)+E(xc)   XCENC  =       214.17674098
  PAW double counting   =      4781.85623176    -4793.08000166
  entropy T*S    EENTRO =         0.00000000
  eigenvalues    EBANDS =      -756.04367954
  atomic energy  EATOM  =      2425.98333211
  Solvation  Ediel_sol  =         0.00000000
  ---------------------------------------------------
  free energy    TOTEN  =      -129.33697500 eV

  energy without entropy =     -129.33697500  energy(sigma->0) =     -129.33697500


--------------------------------------------------------------------------------------------------------




----------------------------------------- Iteration    1(  18)  ---------------------------------------


    POTLOK:  cpu time   18.2892: real time   18.2764
    SETDIJ:  cpu time    0.0300: real time    0.0286
     EDDAV:  cpu time  192.5507: real time  192.3921
       DOS:  cpu time    0.0000: real time    0.0005
    CHARGE:  cpu time   16.2575: real time   16.2444
    MIXING:  cpu time    1.1688: real time    1.1680
    --------------------------------------------
      LOOP:  cpu time  228.2983: real time  228.1134

 eigenvalue-minimisations  :   276
 total energy-change (2. order) :-0.1849673E-02  (-0.1168821E-04)
 number of electron      58.0000010 magnetization 
 augmentation part        2.5827048 magnetization 

 Broyden mixing:
  rms(total) = 0.55494E-03    rms(broyden)= 0.55467E-03
  rms(prec ) = 0.81238E-03
  weight for this iteration     100.00

 eigenvalues of (default mixing * dielectric matrix)
  average eigenvalue GAMMA=   2.0723
  7.5235  4.1972  2.5164  2.2557  1.7633  1.3289  1.3289  1.0343  1.0343  1.0477
  1.0477  0.9312  0.9312

 Free energy of the ion-electron system (eV)
  ---------------------------------------------------
  alpha Z        PSCENC =         0.51957394
  Ewald energy   TEWEN  =      6122.47215521
  -Hartree energ DENC   =     -8125.41350306
  -exchange      EXHF   =         0.00000000
  -V(xc)+E(xc)   XCENC  =       214.17381362
  PAW double counting   =      4781.91688295    -4793.14056262
  entropy T*S    EENTRO =         0.00000000
  eigenvalues    EBANDS =      -755.85051683
  atomic energy  EATOM  =      2425.98333211
  Solvation  Ediel_sol  =         0.00000000
  ---------------------------------------------------
  free energy    TOTEN  =      -129.33882467 eV

  energy without entropy =     -129.33882467  energy(sigma->0) =     -129.33882467


--------------------------------------------------------------------------------------------------------




----------------------------------------- Iteration    1(  19)  ---------------------------------------


    POTLOK:  cpu time   18.2432: real time   18.2293
    SETDIJ:  cpu time    0.0290: real time    0.0284
     EDDAV:  cpu time  219.2267: real time  219.0463
       DOS:  cpu time    0.0000: real time    0.0005
    CHARGE:  cpu time   16.3095: real time   16.2955
    MIXING:  cpu time    1.2508: real time    1.2503
    --------------------------------------------
      LOOP:  cpu time  255.0622: real time  254.8536

 eigenvalue-minimisations  :   328
 total energy-change (2. order) :-0.1079582E-02  (-0.6646420E-05)
 number of electron      58.0000010 magnetization 
 augmentation part        2.5826637 magnetization 

 Broyden mixing:
  rms(total) = 0.35156E-03    rms(broyden)= 0.35132E-03
  rms(prec ) = 0.48473E-03
  weight for this iteration     100.00

 eigenvalues of (default mixing * dielectric matrix)
  average eigenvalue GAMMA=   2.1189
  8.0669  4.6325  2.5907  2.5907  1.6454  1.5511  1.5511  1.0426  1.0426  1.0536
  1.0536  0.9108  0.9665  0.9665

 Free energy of the ion-electron system (eV)
  ---------------------------------------------------
  alpha Z        PSCENC =         0.51957394
  Ewald energy   TEWEN  =      6122.47215521
  -Hartree energ DENC   =     -8125.50738667
  -exchange      EXHF   =         0.00000000
  -V(xc)+E(xc)   XCENC  =       214.17311202
  PAW double counting   =      4782.35331487    -4793.57711862
  entropy T*S    EENTRO =         0.00000000
  eigenvalues    EBANDS =      -755.75688711
  atomic energy  EATOM  =      2425.98333211
  Solvation  Ediel_sol  =         0.00000000
  ---------------------------------------------------
  free energy    TOTEN  =      -129.33990425 eV

  energy without entropy =     -129.33990425  energy(sigma->0) =     -129.33990425


--------------------------------------------------------------------------------------------------------




----------------------------------------- Iteration    1(  20)  ---------------------------------------


    POTLOK:  cpu time   18.1732: real time   18.1584
    SETDIJ:  cpu time    0.0280: real time    0.0283
     EDDAV:  cpu time  223.6010: real time  223.4163
       DOS:  cpu time    0.0000: real time    0.0005
    CHARGE:  cpu time   16.2545: real time   16.2415
    MIXING:  cpu time    1.3068: real time    1.3056
    --------------------------------------------
      LOOP:  cpu time  259.3656: real time  259.1536

 eigenvalue-minimisations  :   336
 total energy-change (2. order) :-0.4326509E-03  (-0.1835730E-05)
 number of electron      58.0000010 magnetization 
 augmentation part        2.5826745 magnetization 

 Broyden mixing:
  rms(total) = 0.19052E-03    rms(broyden)= 0.19047E-03
  rms(prec ) = 0.27943E-03
  weight for this iteration     100.00

 eigenvalues of (default mixing * dielectric matrix)
  average eigenvalue GAMMA=   2.1449
  8.2927  5.2172  2.8126  2.5049  1.8426  1.8426  1.2527  1.2527  1.0326  1.0326
  1.0982  1.0982  0.9688  0.9628  0.9628

 Free energy of the ion-electron system (eV)
  ---------------------------------------------------
  alpha Z        PSCENC =         0.51957394
  Ewald energy   TEWEN  =      6122.47215521
  -Hartree energ DENC   =     -8125.52745231
  -exchange      EXHF   =         0.00000000
  -V(xc)+E(xc)   XCENC  =       214.17173051
  PAW double counting   =      4781.96027272    -4793.18402395
  entropy T*S    EENTRO =         0.00000000
  eigenvalues    EBANDS =      -755.73592513
  atomic energy  EATOM  =      2425.98333211
  Solvation  Ediel_sol  =         0.00000000
  ---------------------------------------------------
  free energy    TOTEN  =      -129.34033690 eV

  energy without entropy =     -129.34033690  energy(sigma->0) =     -129.34033690


--------------------------------------------------------------------------------------------------------




----------------------------------------- Iteration    1(  21)  ---------------------------------------


    POTLOK:  cpu time   18.2752: real time   18.2616
    SETDIJ:  cpu time    0.0290: real time    0.0284
     EDDAV:  cpu time  190.9900: real time  190.8318
       DOS:  cpu time    0.0010: real time    0.0005
    CHARGE:  cpu time   16.2685: real time   16.2553
    MIXING:  cpu time    1.3698: real time    1.3693
    --------------------------------------------
      LOOP:  cpu time  226.9345: real time  226.7507

 eigenvalue-minimisations  :   272
 total energy-change (2. order) :-0.2390591E-03  (-0.9696711E-06)
 number of electron      58.0000010 magnetization 
 augmentation part        2.5826665 magnetization 

 Broyden mixing:
  rms(total) = 0.12643E-03    rms(broyden)= 0.12637E-03
  rms(prec ) = 0.17695E-03
  weight for this iteration     100.00

 eigenvalues of (default mixing * dielectric matrix)
  average eigenvalue GAMMA=   2.2190
  8.4987  5.7584  3.3866  2.6361  2.3480  1.6499  1.6499  1.4780  1.0878  1.0878
  1.0353  1.0353  0.9692  0.9692  0.9972  0.9173

 Free energy of the ion-electron system (eV)
  ---------------------------------------------------
  alpha Z        PSCENC =         0.51957394
  Ewald energy   TEWEN  =      6122.47215521
  -Hartree energ DENC   =     -8125.53317837
  -exchange      EXHF   =         0.00000000
  -V(xc)+E(xc)   XCENC  =       214.17134292
  PAW double counting   =      4782.04254198    -4793.26630356
  entropy T*S    EENTRO =         0.00000000
  eigenvalues    EBANDS =      -755.73004020
  atomic energy  EATOM  =      2425.98333211
  Solvation  Ediel_sol  =         0.00000000
  ---------------------------------------------------
  free energy    TOTEN  =      -129.34057596 eV

  energy without entropy =     -129.34057596  energy(sigma->0) =     -129.34057596


--------------------------------------------------------------------------------------------------------




----------------------------------------- Iteration    1(  22)  ---------------------------------------


    POTLOK:  cpu time   18.2192: real time   18.2040
    SETDIJ:  cpu time    0.0280: real time    0.0284
     EDDAV:  cpu time  207.4125: real time  207.2420
       DOS:  cpu time    0.0000: real time    0.0005
    CHARGE:  cpu time   16.2525: real time   16.2390
    MIXING:  cpu time    1.4418: real time    1.4403
    --------------------------------------------
      LOOP:  cpu time  243.3560: real time  243.1573

 eigenvalue-minimisations  :   304
 total energy-change (2. order) :-0.1522489E-03  (-0.4237055E-06)
 number of electron      58.0000010 magnetization 
 augmentation part        2.5826645 magnetization 

 Broyden mixing:
  rms(total) = 0.79857E-04    rms(broyden)= 0.79820E-04
  rms(prec ) = 0.10132E-03
  weight for this iteration     100.00

 eigenvalues of (default mixing * dielectric matrix)
  average eigenvalue GAMMA=   2.2028
  8.5888  6.1264  3.6252  2.4838  2.4838  1.7053  1.7053  1.3156  1.3156  1.0971
  1.0971  1.0341  1.0341  0.9339  0.9339  0.9841  0.9841

 Free energy of the ion-electron system (eV)
  ---------------------------------------------------
  alpha Z        PSCENC =         0.51957394
  Ewald energy   TEWEN  =      6122.47215521
  -Hartree energ DENC   =     -8125.54999344
  -exchange      EXHF   =         0.00000000
  -V(xc)+E(xc)   XCENC  =       214.17113622
  PAW double counting   =      4781.94200997    -4793.16578968
  entropy T*S    EENTRO =         0.00000000
  eigenvalues    EBANDS =      -755.71315254
  atomic energy  EATOM  =      2425.98333211
  Solvation  Ediel_sol  =         0.00000000
  ---------------------------------------------------
  free energy    TOTEN  =      -129.34072821 eV

  energy without entropy =     -129.34072821  energy(sigma->0) =     -129.34072821


--------------------------------------------------------------------------------------------------------




----------------------------------------- Iteration    1(  23)  ---------------------------------------


    POTLOK:  cpu time   18.2362: real time   18.2214
    SETDIJ:  cpu time    0.0280: real time    0.0285
     EDDAV:  cpu time  240.3265: real time  240.1284
       DOS:  cpu time    0.0000: real time    0.0005
    --------------------------------------------
      LOOP:  cpu time  258.5927: real time  258.3820

 eigenvalue-minimisations  :   368
 total energy-change (2. order) :-0.3637293E-04  (-0.1028543E-06)
 number of electron      58.0000010 magnetization 
 augmentation part        2.5826645 magnetization 

 Free energy of the ion-electron system (eV)
  ---------------------------------------------------
  alpha Z        PSCENC =         0.51957394
  Ewald energy   TEWEN  =      6122.47215521
  -Hartree energ DENC   =     -8125.55575135
  -exchange      EXHF   =         0.00000000
  -V(xc)+E(xc)   XCENC  =       214.17110626
  PAW double counting   =      4781.97901041    -4793.20277973
  entropy T*S    EENTRO =         0.00000000
  eigenvalues    EBANDS =      -755.70741144
  atomic energy  EATOM  =      2425.98333211
  Solvation  Ediel_sol  =         0.00000000
  ---------------------------------------------------
  free energy    TOTEN  =      -129.34076458 eV

  energy without entropy =     -129.34076458  energy(sigma->0) =     -129.34076458


--------------------------------------------------------------------------------------------------------




 average (electrostatic) potential at core
  the test charge radii are     0.5201  0.6991  0.7089  0.7215
  (the norm of the test charge is              1.0000)
       1 -42.3387       2 -42.5842       3 -42.5701       4 -44.8353       5 -42.3715
       6 -41.9365       7 -41.9091       8 -42.0088       9 -43.3168      10 -41.6759
      11 -41.7206      12 -41.9100      13 -59.0940      14 -61.5377      15 -60.0147
      16 -58.6458      17 -60.7691      18 -59.0529      19 -74.8198      20 -73.8651
      21 -80.0399      22 -79.2379
 
 
 
 E-fermi :  -4.4116     XC(G=0):  -0.1534     alpha+bet : -0.0465


 k-point     1 :       0.2500    0.2500    0.2500
  band No.  band energies     occupation 
      1     -26.2448      2.00000
      2     -25.4984      2.00000
      3     -23.5110      2.00000
      4     -22.6637      2.00000
      5     -19.6164      2.00000
      6     -18.2765      2.00000
      7     -17.3001      2.00000
      8     -16.1735      2.00000
      9     -14.8127      2.00000
     10     -13.9485      2.00000
     11     -13.2692      2.00000
     12     -12.4920      2.00000
     13     -11.5545      2.00000
     14     -11.3881      2.00000
     15     -10.9668      2.00000
     16     -10.7267      2.00000
     17     -10.3905      2.00000
     18     -10.1388      2.00000
     19     -10.0225      2.00000
     20      -9.9601      2.00000
     21      -9.3760      2.00000
     22      -9.1403      2.00000
     23      -8.9553      2.00000
     24      -8.7332      2.00000
     25      -8.4245      2.00000
     26      -6.7935      2.00000
     27      -6.2755      2.00000
     28      -5.7857      2.00000
     29      -5.4149      2.00000
     30      -1.1641      0.00000
     31      -1.0114      0.00000
     32      -0.4984      0.00000
     33      -0.2780      0.00000
     34      -0.1956      0.00000
     35      -0.0469      0.00000
     36       0.0241      0.00000
     37       0.0872      0.00000
     38       0.1064      0.00000
     39       0.1126      0.00000
     40       0.1617      0.00000
     41       0.1748      0.00000

 k-point     2 :      -0.2500    0.2500    0.2500
  band No.  band energies     occupation 
      1     -26.2448      2.00000
      2     -25.4984      2.00000
      3     -23.5110      2.00000
      4     -22.6637      2.00000
      5     -19.6164      2.00000
      6     -18.2765      2.00000
      7     -17.3001      2.00000
      8     -16.1735      2.00000
      9     -14.8127      2.00000
     10     -13.9485      2.00000
     11     -13.2692      2.00000
     12     -12.4920      2.00000
     13     -11.5545      2.00000
     14     -11.3881      2.00000
     15     -10.9668      2.00000
     16     -10.7267      2.00000
     17     -10.3905      2.00000
     18     -10.1388      2.00000
     19     -10.0225      2.00000
     20      -9.9601      2.00000
     21      -9.3760      2.00000
     22      -9.1403      2.00000
     23      -8.9553      2.00000
     24      -8.7332      2.00000
     25      -8.4245      2.00000
     26      -6.7935      2.00000
     27      -6.2755      2.00000
     28      -5.7857      2.00000
     29      -5.4148      2.00000
     30      -1.1641      0.00000
     31      -1.0114      0.00000
     32      -0.4984      0.00000
     33      -0.2780      0.00000
     34      -0.1955      0.00000
     35      -0.0469      0.00000
     36       0.0232      0.00000
     37       0.0832      0.00000
     38       0.1102      0.00000
     39       0.1189      0.00000
     40       0.1583      0.00000
     41       0.1729      0.00000

 k-point     3 :       0.2500   -0.2500    0.2500
  band No.  band energies     occupation 
      1     -26.2448      2.00000
      2     -25.4984      2.00000
      3     -23.5110      2.00000
      4     -22.6637      2.00000
      5     -19.6164      2.00000
      6     -18.2766      2.00000
      7     -17.3001      2.00000
      8     -16.1735      2.00000
      9     -14.8127      2.00000
[...]
 augmentation part        2.5815462 magnetization 

 Free energy of the ion-electron system (eV)
  ---------------------------------------------------
  alpha Z        PSCENC =         0.51957394
  Ewald energy   TEWEN  =      6114.97553737
  -Hartree energ DENC   =     -8118.59149430
  -exchange      EXHF   =         0.00000000
  -V(xc)+E(xc)   XCENC  =       214.10470126
  PAW double counting   =      4775.95000505    -4787.16935832
  entropy T*S    EENTRO =         0.00000000
  eigenvalues    EBANDS =      -755.19146450
  atomic energy  EATOM  =      2425.98333211
  Solvation  Ediel_sol  =         0.00000000
  ---------------------------------------------------
  free energy    TOTEN  =      -129.41916739 eV

  energy without entropy =     -129.41916739  energy(sigma->0) =     -129.41916739


--------------------------------------------------------------------------------------------------------




 average (electrostatic) potential at core
  the test charge radii are     0.5201  0.6991  0.7089  0.7215
  (the norm of the test charge is              1.0000)
       1 -42.3438       2 -42.5631       3 -42.5871       4 -44.8026       5 -42.3793
       6 -41.9131       7 -41.8243       8 -41.9537       9 -43.3395      10 -41.7144
      11 -41.7687      12 -41.9324      13 -59.1079      14 -61.5131      15 -60.0052
      16 -58.6241      17 -60.7659      18 -59.0864      19 -74.7923      20 -73.9048
      21 -80.0017      22 -79.2371
 
 
 
 E-fermi :  -4.4940     XC(G=0):  -0.1322     alpha+bet : -0.0465


 k-point     1 :       0.2500    0.2500    0.2500
  band No.  band energies     occupation 
      1     -26.2243      2.00000
      2     -25.4890      2.00000
      3     -23.4572      2.00000
      4     -22.6516      2.00000
      5     -19.6021      2.00000
      6     -18.2850      2.00000
      7     -17.3348      2.00000
      8     -16.1555      2.00000
      9     -14.7400      2.00000
     10     -13.9279      2.00000
     11     -13.2744      2.00000
     12     -12.5340      2.00000
     13     -11.5536      2.00000
     14     -11.3645      2.00000
     15     -10.8924      2.00000
     16     -10.7631      2.00000
     17     -10.3790      2.00000
     18     -10.1259      2.00000
     19     -10.0063      2.00000
     20      -9.9312      2.00000
     21      -9.3646      2.00000
     22      -9.1103      2.00000
     23      -8.9696      2.00000
     24      -8.7061      2.00000
     25      -8.4860      2.00000
     26      -6.8019      2.00000
     27      -6.2486      2.00000
     28      -5.8060      2.00000
     29      -5.4107      2.00000
     30      -1.1548      0.00000
     31      -1.0011      0.00000
     32      -0.4514      0.00000
     33      -0.2867      0.00000
     34      -0.2009      0.00000
     35      -0.0481      0.00000
     36       0.0476      0.00000
     37       0.1106      0.00000
     38       0.1285      0.00000
     39       0.1362      0.00000
     40       0.1841      0.00000
     41       0.1982      0.00000

 k-point     2 :      -0.2500    0.2500    0.2500
  band No.  band energies     occupation 
      1     -26.2243      2.00000
      2     -25.4890      2.00000
      3     -23.4572      2.00000
      4     -22.6516      2.00000
      5     -19.6021      2.00000
      6     -18.2850      2.00000
      7     -17.3348      2.00000
      8     -16.1555      2.00000
      9     -14.7400      2.00000
     10     -13.9279      2.00000
     11     -13.2744      2.00000
     12     -12.5340      2.00000
     13     -11.5536      2.00000
     14     -11.3645      2.00000
     15     -10.8924      2.00000
     16     -10.7631      2.00000
     17     -10.3790      2.00000
     18     -10.1259      2.00000
     19     -10.0063      2.00000
     20      -9.9312      2.00000
     21      -9.3646      2.00000
     22      -9.1103      2.00000
     23      -8.9696      2.00000
     24      -8.7061      2.00000
     25      -8.4860      2.00000
     26      -6.8019      2.00000
     27      -6.2486      2.00000
     28      -5.8060      2.00000
     29      -5.4107      2.00000
     30      -1.1548      0.00000
     31      -1.0011      0.00000
     32      -0.4514      0.00000
     33      -0.2867      0.00000
     34      -0.2009      0.00000
     35      -0.0480      0.00000
     36       0.0466      0.00000
     37       0.1073      0.00000
     38       0.1315      0.00000
     39       0.1435      0.00000
     40       0.1810      0.00000
     41       0.1956      0.00000

 k-point     3 :       0.2500   -0.2500    0.2500
  band No.  band energies     occupation 
      1     -26.2243      2.00000
      2     -25.4890      2.00000
      3     -23.4572      2.00000
      4     -22.6516      2.00000
      5     -19.6021      2.00000
      6     -18.2850      2.00000
      7     -17.3348      2.00000
      8     -16.1555      2.00000
      9     -14.7400      2.00000
     10     -13.9279      2.00000
     11     -13.2744      2.00000
     12     -12.5340      2.00000
     13     -11.5536      2.00000
     14     -11.3645      2.00000
     15     -10.8924      2.00000
     16     -10.7631      2.00000
     17     -10.3790      2.00000
     18     -10.1259      2.00000
     19     -10.0063      2.00000
     20      -9.9312      2.00000
     21      -9.3646      2.00000
     22      -9.1103      2.00000
     23      -8.9696      2.00000
     24      -8.7061      2.00000
     25      -8.4860      2.00000
     26      -6.8019      2.00000
     27      -6.2486      2.00000
     28      -5.8060      2.00000
     29      -5.4107      2.00000
     30      -1.1548      0.00000
     31      -1.0011      0.00000
     32      -0.4514      0.00000
     33      -0.2867      0.00000
     34      -0.2009      0.00000
     35      -0.0476      0.00000
     36       0.0432      0.00000
     37       0.1143      0.00000
     38       0.1258      0.00000
     39       0.1459      0.00000
     40       0.1852      0.00000
     41       0.1960      0.00000

 k-point     4 :      -0.2500   -0.2500    0.2500
  band No.  band energies     occupation 
      1     -26.2243      2.00000
      2     -25.4890      2.00000
      3     -23.4572      2.00000
      4     -22.6516      2.00000
      5     -19.6021      2.00000
      6     -18.2850      2.00000
      7     -17.3348      2.00000
      8     -16.1555      2.00000
      9     -14.7400      2.00000
     10     -13.9279      2.00000
     11     -13.2744      2.00000
     12     -12.5340      2.00000
     13     -11.5536      2.00000
     14     -11.3645      2.00000
     15     -10.8924      2.00000
     16     -10.7631      2.00000
     17     -10.3790      2.00000
     18     -10.1259      2.00000
     19     -10.0063      2.00000
     20      -9.9312      2.00000
     21      -9.3646      2.00000
     22      -9.1103      2.00000
     23      -8.9696      2.00000
     24      -8.7061      2.00000
     25      -8.4860      2.00000
     26      -6.8019      2.00000
     27      -6.2486      2.00000
     28      -5.8060      2.00000
     29      -5.4107      2.00000
     30      -1.1548      0.00000
     31      -1.0011      0.00000
     32      -0.4514      0.00000
     33      -0.2867      0.00000
     34      -0.2009      0.00000
     35      -0.0477      0.00000
     36       0.0438      0.00000
     37       0.1181      0.00000
     38       0.1293      0.00000
     39       0.1362      0.00000
     40       0.1806      0.00000
     41       0.1927      0.00000


--------------------------------------------------------------------------------------------------------


 soft charge-density along one line, spin component           1
         0         1         2         3         4         5         6         7         8         9
 total charge-density along one line
 
 pseudopotential strength for first ion, spin component:           1
 -2.353  -4.056   0.002   0.000  -0.001
 -4.056  -6.907   0.005   0.001  -0.002
  0.002   0.005  -0.332   0.001  -0.002
  0.000   0.001   0.001  -0.336   0.000
 -0.001  -0.002  -0.002   0.000  -0.335
 total augmentation occupancy for first ion, spin component:           1
  3.526  -0.635  -0.401  -0.056   0.176
 -0.635   0.129   0.074   0.010  -0.032
 -0.401   0.074   0.047   0.006  -0.018
 -0.056   0.010   0.006   0.010  -0.002
  0.176  -0.032  -0.018  -0.002   0.015


------------------------ aborting loop because EDIFF is reached ----------------------------------------


    CHARGE:  cpu time   16.3595: real time   16.3456
    FORLOC:  cpu time    5.6581: real time    5.6531
    FORNL :  cpu time   60.3288: real time   60.2791
    STRESS:  cpu time  184.6629: real time  184.5088
    FORCOR:  cpu time   22.7545: real time   22.7355
    FORHAR:  cpu time   10.0325: real time   10.0245
    MIXING:  cpu time    0.7669: real time    0.7663
    OFIELD:  cpu time    0.0000: real time    0.0000

  FORCE on cell =-STRESS in cart. coord.  units (eV):
  Direction    XX          YY          ZZ          XY          YZ          ZX
  --------------------------------------------------------------------------------------
  Alpha Z     0.51957     0.51957     0.51957
  Ewald    2991.05693  2108.76480  1015.15246   -38.14509   133.93492   818.08984
  Hartree  3513.55580  2626.40773  1978.62653   -37.12107   185.24521   648.00145
  E(xc)    -229.88073  -229.47659  -231.76906    -0.09778    -0.50005     0.82208
  Local   -7108.85432 -5315.59733 -3632.50871    72.93796  -340.14594 -1450.30875
  n-local  -132.54232  -135.24526  -131.94862     0.75769     1.58187    -1.22539
  augment    14.62464    14.15223    14.66549    -0.09957     0.77173    -0.16373
  Kinetic   947.61801   927.05067   983.53458     1.78457    19.02284   -15.01271
  Fock        0.00000     0.00000     0.00000     0.00000     0.00000     0.00000
  -------------------------------------------------------------------------------------
  Total      -3.90242    -3.42418    -3.72775     0.01672    -0.08942     0.20278
  in kB      -0.23157    -0.20319    -0.22120     0.00099    -0.00531     0.01203
  external pressure =       -0.22 kB  Pullay stress =        0.00 kB


 VOLUME and BASIS-vectors are now :
 -----------------------------------------------------------------------------
  energy-cutoff  :      400.00
  volume of cell :    27000.00
      direct lattice vectors                 reciprocal lattice vectors
    30.000000000  0.000000000  0.000000000     0.033333333  0.000000000  0.000000000
     0.000000000 30.000000000  0.000000000     0.000000000  0.033333333  0.000000000
     0.000000000  0.000000000 30.000000000     0.000000000  0.000000000  0.033333333

  length of vectors
    30.000000000 30.000000000 30.000000000     0.033333333  0.033333333  0.033333333


 FORCES acting on ions
    electron-ion (+dipol)            ewald-force                    non-local-force                 convergence-correction
 -----------------------------------------------------------------------------------------------
   0.631E+02 -.585E+02 -.910E+01   -.653E+02 0.636E+02 0.982E+01   0.226E+01 -.514E+01 -.718E+00   0.186E-04 0.729E-05 0.401E-05
   0.578E+02 0.242E+02 0.591E+02   -.597E+02 -.262E+02 -.638E+02   0.192E+01 0.198E+01 0.473E+01   0.999E-05 0.164E-04 0.171E-04
   0.581E+02 0.380E+02 -.487E+02   -.599E+02 -.412E+02 0.527E+02   0.176E+01 0.326E+01 -.405E+01   0.869E-05 0.212E-04 -.609E-05
   0.612E+02 0.954E+02 -.281E+02   -.652E+02 -.101E+03 0.301E+02   0.403E+01 0.596E+01 -.192E+01   -.188E-04 0.324E-04 -.105E-04
   -.103E+02 0.101E+03 -.182E+02   0.112E+02 -.106E+03 0.200E+02   -.963E+00 0.540E+01 -.181E+01   -.407E-04 0.266E-04 -.234E-04
   -.789E+02 0.238E+02 0.376E+02   0.844E+02 -.246E+02 -.377E+02   -.549E+01 0.804E+00 -.530E-02   -.254E-04 0.180E-04 -.216E-04
   -.108E+02 -.462E+02 0.708E+02   0.977E+01 0.513E+02 -.729E+02   0.101E+01 -.511E+01 0.210E+01   -.212E-04 0.165E-04 -.728E-05
   0.113E+02 0.578E+02 0.706E+02   -.136E+02 -.615E+02 -.740E+02   0.222E+01 0.372E+01 0.337E+01   -.137E-04 0.215E-04 -.176E-05
   0.295E+02 -.692E+02 0.285E+02   -.347E+02 0.719E+02 -.326E+02   0.523E+01 -.261E+01 0.411E+01   -.544E-04 0.393E-04 -.223E-04
   -.528E+02 -.145E+01 -.698E+02   0.555E+02 -.150E+01 0.740E+02   -.265E+01 0.296E+01 -.415E+01   -.137E-04 0.468E-04 0.471E-05
   -.669E+02 -.491E+02 0.282E+02   0.707E+02 0.510E+02 -.316E+02   -.387E+01 -.183E+01 0.344E+01   -.640E-05 0.456E-04 -.125E-04
   0.123E+02 -.758E+02 -.415E+02   -.149E+02 0.802E+02 0.438E+02   0.264E+01 -.442E+01 -.222E+01   -.200E-04 0.468E-04 0.189E-05
   0.228E+03 0.418E+01 0.970E+00   -.229E+03 -.332E+01 -.714E+00   0.812E+00 -.856E+00 -.260E+00   0.337E-04 0.609E-04 0.159E-04
   0.186E+03 0.137E+02 0.816E+01   -.191E+03 -.137E+02 -.805E+01   0.501E+01 -.808E-01 -.115E+00   -.941E-04 0.749E-04 0.237E-04
   -.336E+02 0.165E+03 0.232E+02   0.391E+02 -.166E+03 -.232E+02   -.549E+01 0.118E+01 0.129E-01   -.150E-03 0.662E-04 -.590E-04
   -.908E+02 0.719E+02 0.211E+03   0.911E+02 -.716E+02 -.212E+03   -.251E+00 -.366E+00 0.984E+00   -.131E-03 0.423E-04 -.581E-04
   -.183E+02 0.407E+02 -.301E+02   0.157E+02 -.429E+02 0.280E+02   0.259E+01 0.215E+01 0.212E+01   -.107E-03 0.584E-04 -.496E-04
   -.132E+03 -.181E+03 -.102E+03   0.136E+03 0.184E+03 0.105E+03   -.373E+01 -.274E+01 -.281E+01   -.314E-04 0.209E-03 0.146E-04
   0.128E+03 0.202E+03 -.485E+02   -.125E+03 -.201E+03 0.500E+02   -.297E+01 -.477E+00 -.148E+01   -.159E-03 0.100E-03 0.217E-04
   -.198E+02 -.197E+03 -.451E+02   0.165E+02 0.200E+03 0.458E+02   0.332E+01 -.312E+01 -.748E+00   -.972E-04 0.103E-03 -.855E-04
   0.465E+02 -.371E+03 0.159E+03   -.278E+02 0.417E+03 -.173E+03   -.186E+02 -.457E+02 0.146E+02   -.156E-03 0.116E-03 0.102E-04
   -.319E+03 0.231E+03 -.244E+03   0.356E+03 -.257E+03 0.271E+03   -.372E+02 0.263E+02 -.269E+02   -.148E-03 0.177E-03 -.759E-04
 -----------------------------------------------------------------------------------------------
   0.485E+02 0.187E+02 0.117E+02   -.114E-12 0.568E-13 0.000E+00   -.485E+02 -.187E+02 -.117E+02   -.122E-02 0.135E-02 -.320E-03
 
 
 POSITION                                       TOTAL-FORCE (eV/Angst)
 -----------------------------------------------------------------------------------
     11.33061     16.01930     14.83176         0.011063      0.000351      0.003554
     11.39507     14.62008     13.73571         0.005159      0.008320     -0.007276
     11.43775     14.35917     15.49701         0.002900     -0.007182     -0.010047
     13.42368     13.22263     15.19718         0.007993      0.008473      0.045476
     15.57451     12.76690     15.17242         0.007240      0.000946     -0.002400
     17.05356     13.77466     13.41427        -0.020290     -0.017640     -0.023681
     15.76663     14.93723     12.99866        -0.013103      0.001924     -0.002726
     15.51126     13.18636     12.74086        -0.035116      0.006396     -0.001977
     15.41606     16.33286     15.19968         0.020224     -0.004369     -0.007103
     17.60017     16.28063     17.26901        -0.001045      0.006270      0.010609
     17.87008     17.20826     15.77094         0.003495      0.019568      0.028172
     16.56877     17.70061     16.89429        -0.026420     -0.003511      0.002323
     11.77005     15.02584     14.68804         0.006647     -0.000062     -0.003965
     13.27999     15.16125     14.62481         0.001223     -0.017700     -0.004725
     15.42942     13.80238     14.83637         0.002190      0.002175     -0.000829
     15.96581     13.93660     13.40357        -0.016365     -0.001072     -0.007556
     16.33688     14.61230     15.79528         0.045470     -0.033561      0.023475
     17.09873     16.83821     16.46815        -0.002701      0.002661      0.013766
     13.97703     14.03402     14.93820         0.004259      0.002481      0.009038
     16.16722     15.95427     15.79574         0.004193      0.010236     -0.008723
     13.82327     16.23214     14.29881         0.014696     -0.005273     -0.033178
     17.21764     14.01473     16.43201        -0.021711      0.020571     -0.022230
 -----------------------------------------------------------------------------------
    total drift:                               -0.003488     -0.024475      0.015038


--------------------------------------------------------------------------------------------------------



  FREE ENERGIE OF THE ION-ELECTRON SYSTEM (eV)
  ---------------------------------------------------
  free  energy   TOTEN  =      -129.41916739 eV

  energy  without entropy=     -129.41916739  energy(sigma->0) =     -129.41916739
 
 d Force = 0.4177314E-04[ 0.396E-04, 0.439E-04]  d Energy = 0.4211584E-04-0.343E-06
 d Force = 0.3187259E-01[ 0.319E-01, 0.319E-01]  d Ewald  = 0.3187259E-01 0.929E-09


--------------------------------------------------------------------------------------------------------


    POTLOK:  cpu time   20.2729: real time   20.2559


--------------------------------------------------------------------------------------------------------


 NEB: the previous image is higher in energy: T
 NEB: the next image is higher in energy    : F
 NEB: only prev energy greater

 NEB: Tangent
 ----------------------------------------------
      0.03722     -0.02519     -0.03836
      0.01621     -0.00655     -0.06367
      0.04157     -0.03753     -0.06833
      0.05027     -0.02786     -0.05557
      0.06211     -0.03184     -0.22016
      0.04795      0.19220     -0.12536
      0.02557      0.21652     -0.00485
      0.06005      0.22859     -0.19233
      0.02467     -0.02094      0.02449
     -0.30369     -0.07725      0.43527
      0.11257     -0.15376      0.39864
     -0.19251     -0.03445      0.09466
      0.03179     -0.02457     -0.06174
      0.03080     -0.02838     -0.07788
      0.03904      0.00574     -0.11567
      0.04430      0.17163     -0.10802
     -0.01580     -0.05496     -0.00281
     -0.10478     -0.08279      0.25570
      0.03577     -0.02963     -0.09461
     -0.02217     -0.05292      0.06526
      0.03371     -0.02969     -0.07796
     -0.06466     -0.08372      0.04248

 NEB: forces: par spring, perp REAL, dneb     0.019709    0.123037    0.000000
 NEB: distance to prev, next image, angle between     1.135572    1.131630  155.820434
 NEB: projections on to tangent (spring, REAL)    -0.019709    0.023871

 stress matrix after NEB project (eV)
     -3.90242      0.01672      0.20278
      0.01672     -3.42418     -0.08942
      0.20278     -0.08942     -3.72775
  FORCES: max atom, RMS     0.060488    0.026566
  FORCE total and by dimension    0.124606    0.047898
  Stress total and by dimension    6.399126    3.902425
 OPT: skip step - force has converged


--------------------------------------------------------------------------------------------------------


  
 reached required accuracy - stopping structural energy minimisation
     LOOP+:  cpu time 1818.0686: real time 1816.7712
    4ORBIT:  cpu time    0.0000: real time    0.0000

 total amount of memory used by VASP on root node  4333708. kBytes
========================================================================

   base      :      30000. kBytes
   nonlr-proj:       2403. kBytes
   fftplans  :     924480. kBytes
   grid      :    2089440. kBytes
   one-center:         67. kBytes
   wavefun   :    1287318. kBytes
 
  
  
 General timing and accounting informations for this job:
 ========================================================
  
                  Total CPU time used (sec):   123688.711
                            User time (sec):   122921.147
                          System time (sec):      767.567
                         Elapsed time (sec):   123693.188
  
                   Maximum memory used (kb):     5899868.
                   Average memory used (kb):           0.
  
                          Minor page faults:    181391313
                          Major page faults:            9
                 Voluntary context switches:         7905
