 vasp.5.4.1 24Jun15 (build Jan 13 2020 12:58:22) complex                        
  
 POSCAR found type information on POSCAR  H  C  N  O 
 13/POSCAR found :  4 types and      22 ions
 scaLAPACK will be used
 LDA part: xc-table for Pade appr. of Perdew
 POSCAR found type information on POSCAR  H  C  N  O 
 00/POSCAR found :  4 types and      22 ions
 POSCAR found type information on POSCAR  H  C  N  O 
 16/POSCAR found :  4 types and      22 ions
 Jacobian:    50.2178792621697     
 POSCAR, INCAR and KPOINTS ok, starting setup
 WARNING: small aliasing (wrap around) errors must be expected
 FFT: planning ...
 WAVECAR not read
 entering main loop
       N       E                     dE             d eps       ncg     rms          rms(c)
DAV:   1     0.580199124259E+03    0.58020E+03   -0.82779E+03   408   0.485E+02
DAV:   2     0.246465118069E+03   -0.33373E+03   -0.32349E+03   581   0.984E+01
DAV:   3    -0.500575195611E+02   -0.29652E+03   -0.28845E+03   488   0.106E+02
DAV:   4    -0.137197463144E+03   -0.87140E+02   -0.87034E+02   397   0.783E+01
DAV:   5    -0.141796918461E+03   -0.45995E+01   -0.45883E+01   464   0.214E+01    0.196E+01
DAV:   6    -0.131639643646E+03    0.10157E+02   -0.23811E+01   408   0.199E+01    0.997E+00
DAV:   7    -0.129881616741E+03    0.17580E+01   -0.45009E+00   424   0.832E+00    0.516E+00
DAV:   8    -0.129391092625E+03    0.49052E+00   -0.87024E-01   432   0.408E+00    0.152E+00
DAV:   9    -0.129324078549E+03    0.67014E-01   -0.10172E-01   464   0.156E+00    0.568E-01
DAV:  10    -0.129312465245E+03    0.11613E-01   -0.24822E-02   440   0.822E-01    0.257E-01
DAV:  11    -0.129307273661E+03    0.51916E-02   -0.78494E-03   456   0.446E-01    0.162E-01
DAV:  12    -0.129307828256E+03   -0.55460E-03   -0.56612E-03   367   0.356E-01    0.986E-02
DAV:  13    -0.129313819315E+03   -0.59911E-02   -0.44357E-03   448   0.319E-01    0.601E-02
DAV:  14    -0.129320282472E+03   -0.64632E-02   -0.17809E-03   392   0.206E-01    0.393E-02
DAV:  15    -0.129328230866E+03   -0.79484E-02   -0.95404E-04   418   0.114E-01    0.250E-02
DAV:  16    -0.129334332797E+03   -0.61019E-02   -0.48026E-04   350   0.737E-02    0.139E-02
DAV:  17    -0.129336974997E+03   -0.26422E-02   -0.13078E-04   336   0.378E-02    0.955E-03
DAV:  18    -0.129338824669E+03   -0.18497E-02   -0.11688E-04   276   0.308E-02    0.555E-03
DAV:  19    -0.129339904251E+03   -0.10796E-02   -0.66464E-05   328   0.217E-02    0.352E-03
DAV:  20    -0.129340336902E+03   -0.43265E-03   -0.18357E-05   336   0.138E-02    0.191E-03
DAV:  21    -0.129340575961E+03   -0.23906E-03   -0.96967E-06   272   0.855E-03    0.126E-03
DAV:  22    -0.129340728210E+03   -0.15225E-03   -0.42371E-06   304   0.679E-03    0.799E-04
DAV:  23    -0.129340764583E+03   -0.36373E-04   -0.10285E-06   368   0.310E-03
   1 F= -.12934076E+03 E0= -.12934076E+03  d E =-.129341E+03
damped:  g(F)=  0.000E+00 g(S)=  0.000E+00 dE (1.order)= 0.000E+00
 bond charge predicted
       N       E                     dE             d eps       ncg     rms          rms(c)
DAV:   1    -0.129344197076E+03   -0.34689E-02   -0.10524E-01   342   0.170E+00    0.755E-02
DAV:   2    -0.129344358728E+03   -0.16165E-03   -0.23787E-03   464   0.234E-01    0.499E-02
DAV:   3    -0.129344333941E+03    0.24787E-04   -0.98433E-05   365   0.554E-02    0.290E-02
DAV:   4    -0.129344340457E+03   -0.65166E-05   -0.63689E-05   279   0.430E-02    0.840E-03
DAV:   5    -0.129344344997E+03   -0.45393E-05   -0.17445E-05   366   0.220E-02    0.411E-03
DAV:   6    -0.129344347379E+03   -0.23824E-05   -0.35168E-06   286   0.973E-03
   2 F= -.12934435E+03 E0= -.12934435E+03  d E =-.358280E-02
damped:  g(F)=  0.000E+00 g(S)=  0.000E+00 dE (1.order)= 0.000E+00
 bond charge predicted
       N       E                     dE             d eps       ncg     rms          rms(c)
DAV:   1    -0.129346307084E+03   -0.19621E-02   -0.19696E-01   334   0.234E+00    0.984E-02
DAV:   2    -0.129346602805E+03   -0.29572E-03   -0.42112E-03   427   0.313E-01    0.673E-02
DAV:   3    -0.129346554451E+03    0.48354E-04   -0.15147E-04   368   0.695E-02    0.394E-02
DAV:   4    -0.129346557805E+03   -0.33536E-05   -0.11364E-04   288   0.571E-02    0.101E-02
DAV:   5    -0.129346560898E+03   -0.30938E-05   -0.27165E-05   272   0.274E-02    0.551E-03
DAV:   6    -0.129346562367E+03   -0.14687E-05   -0.60607E-06   266   0.127E-02
   3 F= -.12934656E+03 E0= -.12934656E+03  d E =-.221499E-02
damped:  g(F)=  0.000E+00 g(S)=  0.000E+00 dE (1.order)= 0.000E+00
 bond charge predicted
       N       E                     dE             d eps       ncg     rms          rms(c)
DAV:   1    -0.129348581747E+03   -0.20208E-02   -0.14829E-01   336   0.204E+00    0.869E-02
DAV:   2    -0.129348800386E+03   -0.21864E-03   -0.31617E-03   428   0.267E-01    0.574E-02
DAV:   3    -0.129348781585E+03    0.18801E-04   -0.97047E-05   343   0.572E-02    0.341E-02
DAV:   4    -0.129348801086E+03   -0.19500E-04   -0.97793E-05   297   0.521E-02    0.862E-03
DAV:   5    -0.129348803059E+03   -0.19733E-05   -0.20892E-05   272   0.254E-02    0.482E-03
DAV:   6    -0.129348805027E+03   -0.19676E-05   -0.36102E-06   256   0.100E-02
   4 F= -.12934881E+03 E0= -.12934881E+03  d E =-.224266E-02
damped:  g(F)=  0.000E+00 g(S)=  0.000E+00 dE (1.order)= 0.000E+00
 bond charge predicted
       N       E                     dE             d eps       ncg     rms          rms(c)
DAV:   1    -0.129352419986E+03   -0.36169E-02   -0.19332E-01   331   0.234E+00    0.108E-01
DAV:   2    -0.129352695262E+03   -0.27528E-03   -0.45580E-03   427   0.325E-01    0.682E-02
DAV:   3    -0.129352672780E+03    0.22483E-04   -0.17193E-04   360   0.755E-02    0.401E-02
DAV:   4    -0.129352705998E+03   -0.33218E-04   -0.15426E-04   282   0.657E-02    0.114E-02
DAV:   5    -0.129352708456E+03   -0.24579E-05   -0.37540E-05   304   0.334E-02    0.608E-03
DAV:   6    -0.129352710270E+03   -0.18142E-05   -0.43510E-06   222   0.118E-02
   5 F= -.12935271E+03 E0= -.12935271E+03  d E =-.390524E-02
damped:  g(F)=  0.000E+00 g(S)=  0.000E+00 dE (1.order)= 0.000E+00
 bond charge predicted
       N       E                     dE             d eps       ncg     rms          rms(c)
DAV:   1    -0.129355651211E+03   -0.29428E-02   -0.27726E-01   329   0.277E+00    0.124E-01
DAV:   2    -0.129356063480E+03   -0.41227E-03   -0.60287E-03   444   0.374E-01    0.819E-02
DAV:   3    -0.129356020490E+03    0.42990E-04   -0.22750E-04   342   0.868E-02    0.454E-02
DAV:   4    -0.129356060712E+03   -0.40222E-04   -0.21909E-04   379   0.728E-02    0.137E-02
DAV:   5    -0.129356061723E+03   -0.10106E-05   -0.42112E-05   296   0.343E-02    0.716E-03
DAV:   6    -0.129356064145E+03   -0.24218E-05   -0.68007E-06   302   0.133E-02
   6 F= -.12935606E+03 E0= -.12935606E+03  d E =-.335387E-02
damped:  g(F)=  0.000E+00 g(S)=  0.000E+00 dE (1.order)= 0.000E+00
 bond charge predicted
       N       E                     dE             d eps       ncg     rms          rms(c)
DAV:   1    -0.129357745600E+03   -0.16839E-02   -0.31600E-01   328   0.296E+00    0.126E-01
DAV:   2    -0.129358231116E+03   -0.48552E-03   -0.64534E-03   428   0.386E-01    0.847E-02
DAV:   3    -0.129358199740E+03    0.31376E-04   -0.21943E-04   332   0.879E-02    0.456E-02
DAV:   4    -0.129358237118E+03   -0.37378E-04   -0.15460E-04   368   0.660E-02    0.105E-02
DAV:   5    -0.129358240760E+03   -0.36417E-05   -0.31113E-05   304   0.298E-02    0.644E-03
DAV:   6    -0.129358243663E+03   -0.29030E-05   -0.54096E-06   284   0.119E-02
   7 F= -.12935824E+03 E0= -.12935824E+03  d E =-.217952E-02
damped:  g(F)=  0.000E+00 g(S)=  0.000E+00 dE (1.order)= 0.000E+00
 bond charge predicted
       N       E                     dE             d eps       ncg     rms          rms(c)
DAV:   1    -0.129360662395E+03   -0.24216E-02   -0.37915E-01   328   0.323E+00    0.139E-01
DAV:   2    -0.129361215067E+03   -0.55267E-03   -0.74317E-03   418   0.402E-01    0.903E-02
DAV:   3    -0.129361198992E+03    0.16076E-04   -0.21134E-04   300   0.860E-02    0.485E-02
DAV:   4    -0.129361242503E+03   -0.43511E-04   -0.12955E-04   327   0.599E-02    0.931E-03
DAV:   5    -0.129361246814E+03   -0.43110E-05   -0.24066E-05   328   0.260E-02    0.557E-03
DAV:   6    -0.129361249753E+03   -0.29393E-05   -0.34777E-06   292   0.974E-03
   8 F= -.12936125E+03 E0= -.12936125E+03  d E =-.300609E-02
damped:  g(F)=  0.000E+00 g(S)=  0.000E+00 dE (1.order)= 0.000E+00
 bond charge predicted
       N       E                     dE             d eps       ncg     rms          rms(c)
DAV:   1    -0.129364314654E+03   -0.30678E-02   -0.61639E-01   328   0.413E+00    0.186E-01
DAV:   2    -0.129365292943E+03   -0.97829E-03   -0.13905E-02   427   0.558E-01    0.118E-01
DAV:   3    -0.129365232004E+03    0.60939E-04   -0.44117E-04   427   0.116E-01    0.675E-02
DAV:   4    -0.129365314563E+03   -0.82559E-04   -0.24865E-04   365   0.841E-02    0.163E-02
DAV:   5    -0.129365320704E+03   -0.61407E-05   -0.48355E-05   296   0.381E-02    0.847E-03
DAV:   6    -0.129365324094E+03   -0.33902E-05   -0.77535E-06   296   0.146E-02
   9 F= -.12936532E+03 E0= -.12936532E+03  d E =-.407434E-02
damped:  g(F)=  0.000E+00 g(S)=  0.000E+00 dE (1.order)= 0.000E+00
 bond charge predicted
       N       E                     dE             d eps       ncg     rms          rms(c)
DAV:   1    -0.129367685615E+03   -0.23649E-02   -0.94825E-01   328   0.508E+00    0.213E-01
DAV:   2    -0.129369173252E+03   -0.14876E-02   -0.20072E-02   436   0.662E-01    0.136E-01
DAV:   3    -0.129369111376E+03    0.61876E-04   -0.52804E-04   419   0.130E-01    0.780E-02
DAV:   4    -0.129369239362E+03   -0.12799E-03   -0.33230E-04   340   0.978E-02    0.175E-02
DAV:   5    -0.129369247824E+03   -0.84620E-05   -0.58679E-05   280   0.418E-02    0.975E-03
DAV:   6    -0.129369252142E+03   -0.43178E-05   -0.86023E-06   290   0.158E-02
  10 F= -.12936925E+03 E0= -.12936925E+03  d E =-.392805E-02
damped:  g(F)=  0.000E+00 g(S)=  0.000E+00 dE (1.order)= 0.000E+00
 bond charge predicted
       N       E                     dE             d eps       ncg     rms          rms(c)
DAV:   1    -0.129372949303E+03   -0.37015E-02   -0.14849E+00   328   0.631E+00    0.242E-01
DAV:   2    -0.129375153680E+03   -0.22044E-02   -0.28681E-02   404   0.783E-01    0.161E-01
DAV:   3    -0.129375057594E+03    0.96086E-04   -0.77335E-04   427   0.159E-01    0.911E-02
DAV:   4    -0.129375212652E+03   -0.15506E-03   -0.43390E-04   454   0.115E-01    0.193E-02
DAV:   5    -0.129375224201E+03   -0.11549E-04   -0.66212E-05   304   0.441E-02    0.118E-02
DAV:   6    -0.129375228970E+03   -0.47695E-05   -0.10592E-05   316   0.169E-02
  11 F= -.12937523E+03 E0= -.12937523E+03  d E =-.597683E-02
damped:  g(F)=  0.000E+00 g(S)=  0.000E+00 dE (1.order)= 0.000E+00
 bond charge predicted
       N       E                     dE             d eps       ncg     rms          rms(c)
DAV:   1    -0.129377005030E+03   -0.17808E-02   -0.19977E+00   328   0.731E+00    0.287E-01
DAV:   2    -0.129380116034E+03   -0.31110E-02   -0.41067E-02   404   0.934E-01    0.182E-01
DAV:   3    -0.129380045950E+03    0.70083E-04   -0.97830E-04   428   0.171E-01    0.106E-01
DAV:   4    -0.129380313770E+03   -0.26782E-03   -0.63184E-04   428   0.135E-01    0.243E-02
DAV:   5    -0.129380327078E+03   -0.13308E-04   -0.11670E-04   280   0.593E-02    0.136E-02
DAV:   6    -0.129380333577E+03   -0.64991E-05   -0.14526E-05   298   0.203E-02
  12 F= -.12938033E+03 E0= -.12938033E+03  d E =-.510461E-02
damped:  g(F)=  0.000E+00 g(S)=  0.000E+00 dE (1.order)= 0.000E+00
 bond charge predicted
       N       E                     dE             d eps       ncg     rms          rms(c)
DAV:   1    -0.129381574882E+03   -0.12478E-02   -0.28345E+00   328   0.869E+00    0.331E-01
DAV:   2    -0.129385823638E+03   -0.42488E-02   -0.54841E-02   437   0.109E+00    0.217E-01
DAV:   3    -0.129385669576E+03    0.15406E-03   -0.12516E-03   428   0.201E-01    0.124E-01
DAV:   4    -0.129385975645E+03   -0.30607E-03   -0.78050E-04   364   0.151E-01    0.259E-02
DAV:   5    -0.129386004650E+03   -0.29005E-04   -0.12911E-04   368   0.602E-02    0.165E-02
DAV:   6    -0.129386015862E+03   -0.11212E-04   -0.16297E-05   272   0.223E-02
  13 F= -.12938602E+03 E0= -.12938602E+03  d E =-.568228E-02
damped:  g(F)=  0.000E+00 g(S)=  0.000E+00 dE (1.order)= 0.000E+00
 bond charge predicted
       N       E                     dE             d eps       ncg     rms          rms(c)
DAV:   1    -0.129384172190E+03    0.18325E-02   -0.33910E+00   328   0.958E+00    0.377E-01
DAV:   2    -0.129389801211E+03   -0.56290E-02   -0.72071E-02   396   0.124E+00    0.244E-01
DAV:   3    -0.129389615831E+03    0.18538E-03   -0.15174E-03   428   0.213E-01    0.142E-01
DAV:   4    -0.129390012515E+03   -0.39668E-03   -0.10416E-03   364   0.178E-01    0.263E-02
DAV:   5    -0.129390039197E+03   -0.26682E-04   -0.20079E-04   400   0.735E-02    0.189E-02
DAV:   6    -0.129390049366E+03   -0.10169E-04   -0.15451E-05   274   0.212E-02
  14 F= -.12939005E+03 E0= -.12939005E+03  d E =-.403350E-02
damped:  g(F)=  0.000E+00 g(S)=  0.000E+00 dE (1.order)= 0.000E+00
 bond charge predicted
       N       E                     dE             d eps       ncg     rms          rms(c)
DAV:   1    -0.129391977981E+03   -0.19388E-02   -0.13962E-01   331   0.201E+00    0.100E-01
DAV:   2    -0.129392359863E+03   -0.38188E-03   -0.49101E-03   425   0.332E-01    0.674E-02
DAV:   3    -0.129392322402E+03    0.37461E-04   -0.14340E-04   366   0.701E-02    0.413E-02
DAV:   4    -0.129392331197E+03   -0.87943E-05   -0.11984E-04   233   0.596E-02    0.106E-02
DAV:   5    -0.129392341880E+03   -0.10683E-04   -0.29030E-05   368   0.281E-02    0.518E-03
DAV:   6    -0.129392348963E+03   -0.70829E-05   -0.50544E-06   234   0.118E-02
  15 F= -.12939235E+03 E0= -.12939235E+03  d E =-.229960E-02
damped:  g(F)=  0.000E+00 g(S)=  0.000E+00 dE (1.order)= 0.000E+00
 bond charge predicted
       N       E                     dE             d eps       ncg     rms          rms(c)
DAV:   1    -0.129391378025E+03    0.96385E-03   -0.13142E-01   335   0.193E+00    0.919E-02
DAV:   2    -0.129391696248E+03   -0.31822E-03   -0.42393E-03   452   0.310E-01    0.633E-02
DAV:   3    -0.129391656191E+03    0.40057E-04   -0.11942E-04   368   0.637E-02    0.399E-02
DAV:   4    -0.129391652932E+03    0.32593E-05   -0.12412E-04   272   0.598E-02    0.101E-02
DAV:   5    -0.129391656603E+03   -0.36708E-05   -0.27828E-05   368   0.280E-02    0.562E-03
DAV:   6    -0.129391658835E+03   -0.22324E-05   -0.44638E-06   232   0.117E-02
  16 F= -.12939166E+03 E0= -.12939166E+03  d E =0.690128E-03
damped:  g(F)=  0.000E+00 g(S)=  0.000E+00 dE (1.order)= 0.000E+00
 bond charge predicted
       N       E                     dE             d eps       ncg     rms          rms(c)
DAV:   1    -0.129392291639E+03   -0.63504E-03   -0.66387E-03   399   0.437E-01    0.225E-02
DAV:   2    -0.129392310780E+03   -0.19142E-04   -0.22222E-04   329   0.714E-02    0.142E-02
DAV:   3    -0.129392311537E+03   -0.75653E-06   -0.12151E-05   264   0.195E-02    0.856E-03
DAV:   4    -0.129392315178E+03   -0.36411E-05   -0.60985E-06   264   0.131E-02    0.224E-03
DAV:   5    -0.129392317276E+03   -0.20978E-05   -0.13488E-06   285   0.605E-03    0.914E-04
DAV:   6    -0.129392318313E+03   -0.10373E-05   -0.23163E-07   240   0.259E-03
  17 F= -.12939232E+03 E0= -.12939232E+03  d E =-.659478E-03
damped:  g(F)=  0.000E+00 g(S)=  0.000E+00 dE (1.order)= 0.000E+00
 bond charge predicted
       N       E                     dE             d eps       ncg     rms          rms(c)
DAV:   1    -0.129393015926E+03   -0.69865E-03   -0.20515E-02   344   0.769E-01    0.396E-02
DAV:   2    -0.129393070038E+03   -0.54112E-04   -0.71699E-04   427   0.126E-01    0.253E-02
DAV:   3    -0.129393063129E+03    0.69095E-05   -0.21864E-05   286   0.276E-02    0.153E-02
DAV:   4    -0.129393062154E+03    0.97476E-06   -0.16244E-05   304   0.219E-02    0.406E-03
DAV:   5    -0.129393062503E+03   -0.34878E-06   -0.38664E-06   304   0.104E-02    0.182E-03
DAV:   6    -0.129393062721E+03   -0.21806E-06   -0.63713E-07   218   0.438E-03
  18 F= -.12939306E+03 E0= -.12939306E+03  d E =-.744408E-03
damped:  g(F)=  0.000E+00 g(S)=  0.000E+00 dE (1.order)= 0.000E+00
 bond charge predicted
       N       E                     dE             d eps       ncg     rms          rms(c)
DAV:   1    -0.129393288664E+03   -0.22616E-03   -0.28180E-02   368   0.898E-01    0.452E-02
DAV:   2    -0.129393357689E+03   -0.69025E-04   -0.94271E-04   429   0.145E-01    0.291E-02
DAV:   3    -0.129393347559E+03    0.10130E-04   -0.27888E-05   272   0.316E-02    0.177E-02
DAV:   4    -0.129393345383E+03    0.21758E-05   -0.24748E-05   264   0.267E-02    0.444E-03
DAV:   5    -0.129393345585E+03   -0.20209E-06   -0.54328E-06   304   0.124E-02    0.208E-03
DAV:   6    -0.129393345919E+03   -0.33330E-06   -0.82825E-07   224   0.503E-03
  19 F= -.12939335E+03 E0= -.12939335E+03  d E =-.283198E-03
damped:  g(F)=  0.000E+00 g(S)=  0.000E+00 dE (1.order)= 0.000E+00
 bond charge predicted
       N       E                     dE             d eps       ncg     rms          rms(c)
DAV:   1    -0.129393368358E+03   -0.22772E-04   -0.31812E-05   271   0.305E-02    0.162E-03
DAV:   2    -0.129393369103E+03   -0.74542E-06   -0.17696E-06   242   0.746E-03    0.104E-03
DAV:   3    -0.129393369752E+03   -0.64885E-06   -0.18125E-07   206   0.251E-03    0.655E-04
DAV:   4    -0.129393370850E+03   -0.10985E-05   -0.53730E-08   297   0.138E-03    0.198E-04
DAV:   5    -0.129393371425E+03   -0.57440E-06    0.24446E-08   272   0.648E-04    0.115E-04
DAV:   6    -0.129393371938E+03   -0.51297E-06    0.38254E-08   200   0.385E-04
  20 F= -.12939337E+03 E0= -.12939337E+03  d E =-.260192E-04
damped:  g(F)=  0.000E+00 g(S)=  0.000E+00 dE (1.order)= 0.000E+00
 bond charge predicted
       N       E                     dE             d eps       ncg     rms          rms(c)
DAV:   1    -0.129393413315E+03   -0.41890E-04   -0.12322E-04   269   0.603E-02    0.282E-03
DAV:   2    -0.129393414200E+03   -0.88467E-06   -0.71168E-06   270   0.148E-02    0.175E-03
DAV:   3    -0.129393414482E+03   -0.28254E-06   -0.69112E-07   202   0.461E-03    0.121E-03
DAV:   4    -0.129393414906E+03   -0.42342E-06   -0.15591E-07   235   0.261E-03    0.320E-04
DAV:   5    -0.129393415084E+03   -0.17783E-06   -0.72860E-09   272   0.119E-03    0.209E-04
DAV:   6    -0.129393415251E+03   -0.16717E-06    0.32717E-08   200   0.631E-04
  21 F= -.12939342E+03 E0= -.12939342E+03  d E =-.433129E-04
damped:  g(F)=  0.000E+00 g(S)=  0.000E+00 dE (1.order)= 0.000E+00
 bond charge predicted
       N       E                     dE             d eps       ncg     rms          rms(c)
DAV:   1    -0.129393471251E+03   -0.56168E-04   -0.25664E-04   328   0.863E-02    0.405E-03
DAV:   2    -0.129393472212E+03   -0.96080E-06   -0.11508E-05   243   0.182E-02    0.253E-03
DAV:   3    -0.129393472263E+03   -0.50542E-07   -0.11577E-06   272   0.599E-03    0.160E-03
DAV:   4    -0.129393472236E+03    0.27024E-07   -0.29811E-07   245   0.328E-03    0.429E-04
DAV:   5    -0.129393472250E+03   -0.14781E-07   -0.45346E-08   252   0.159E-03    0.250E-04
DAV:   6    -0.129393472282E+03   -0.32048E-07    0.22588E-08   196   0.795E-04
  22 F= -.12939347E+03 E0= -.12939347E+03  d E =-.570318E-04
damped:  g(F)=  0.000E+00 g(S)=  0.000E+00 dE (1.order)= 0.000E+00
 bond charge predicted
       N       E                     dE             d eps       ncg     rms          rms(c)
DAV:   1    -0.129393539119E+03   -0.66869E-04   -0.40408E-04   313   0.108E-01    0.495E-03
DAV:   2    -0.129393540154E+03   -0.10352E-05   -0.14467E-05   236   0.192E-02    0.313E-03
DAV:   3    -0.129393540122E+03    0.32550E-07   -0.15058E-06   272   0.662E-03    0.189E-03
DAV:   4    -0.129393540013E+03    0.10854E-06   -0.40194E-07   244   0.365E-03    0.541E-04
DAV:   5    -0.129393540013E+03    0.71441E-09   -0.68384E-08   173   0.187E-03    0.273E-04
DAV:   6    -0.129393540049E+03   -0.36673E-07    0.17682E-08   193   0.900E-04
  23 F= -.12939354E+03 E0= -.12939354E+03  d E =-.677668E-04
damped:  g(F)=  0.000E+00 g(S)=  0.000E+00 dE (1.order)= 0.000E+00
 bond charge predicted
       N       E                     dE             d eps       ncg     rms          rms(c)
DAV:   1    -0.129393614551E+03   -0.74539E-04   -0.53494E-04   295   0.123E-01    0.551E-03
DAV:   2    -0.129393615868E+03   -0.13171E-05   -0.17970E-05   200   0.214E-02    0.347E-03
DAV:   3    -0.129393615875E+03   -0.69526E-08   -0.18773E-06   220   0.737E-03    0.210E-03
DAV:   4    -0.129393615802E+03    0.73385E-07   -0.50573E-07   233   0.405E-03    0.590E-04
DAV:   5    -0.129393615818E+03   -0.16461E-07   -0.97691E-08   164   0.208E-03    0.304E-04
DAV:   6    -0.129393615870E+03   -0.51268E-07    0.80013E-09   165   0.100E-03
  24 F= -.12939362E+03 E0= -.12939362E+03  d E =-.758203E-04
damped:  g(F)=  0.000E+00 g(S)=  0.000E+00 dE (1.order)= 0.000E+00
 bond charge predicted
       N       E                     dE             d eps       ncg     rms          rms(c)
DAV:   1    -0.129393697298E+03   -0.81480E-04   -0.63630E-04   296   0.134E-01    0.577E-03
DAV:   2    -0.129393698764E+03   -0.14664E-05   -0.19440E-05   200   0.223E-02    0.359E-03
DAV:   3    -0.129393698834E+03   -0.69785E-07   -0.20300E-06   164   0.767E-03    0.217E-03
DAV:   4    -0.129393698821E+03    0.13462E-07   -0.54041E-07   191   0.418E-03    0.588E-04
DAV:   5    -0.129393698855E+03   -0.33943E-07   -0.11039E-07   164   0.214E-03    0.312E-04
DAV:   6    -0.129393698915E+03   -0.60924E-07    0.23953E-09   165   0.104E-03
  25 F= -.12939370E+03 E0= -.12939370E+03  d E =-.830459E-04
damped:  g(F)=  0.000E+00 g(S)=  0.000E+00 dE (1.order)= 0.000E+00
 bond charge predicted
       N       E                     dE             d eps       ncg     rms          rms(c)
DAV:   1    -0.129393799158E+03   -0.10030E-03   -0.88596E-04   327   0.156E-01    0.673E-03
DAV:   2    -0.129393800636E+03   -0.14774E-05   -0.20162E-05   174   0.218E-02    0.403E-03
DAV:   3    -0.129393800754E+03   -0.11828E-06   -0.20492E-06   164   0.741E-03    0.219E-03
DAV:   4    -0.129393800816E+03   -0.62295E-07   -0.53996E-07   164   0.397E-03    0.553E-04
DAV:   5    -0.129393800858E+03   -0.42326E-07   -0.11827E-07   164   0.202E-03    0.267E-04
DAV:   6    -0.129393800923E+03   -0.64666E-07   -0.39952E-09   164   0.977E-04
  26 F= -.12939380E+03 E0= -.12939380E+03  d E =-.102008E-03
damped:  g(F)=  0.000E+00 g(S)=  0.000E+00 dE (1.order)= 0.000E+00
 bond charge predicted
       N       E                     dE             d eps       ncg     rms          rms(c)
DAV:   1    -0.129393927442E+03   -0.12658E-03   -0.12370E-03   328   0.183E-01    0.757E-03
DAV:   2    -0.129393929238E+03   -0.17961E-05   -0.24326E-05   164   0.238E-02    0.442E-03
DAV:   3    -0.129393929522E+03   -0.28467E-06   -0.24378E-06   164   0.798E-03    0.234E-03
DAV:   4    -0.129393929708E+03   -0.18557E-06   -0.61873E-07   164   0.413E-03    0.507E-04
DAV:   5    -0.129393929765E+03   -0.56887E-07   -0.14972E-07   164   0.207E-03    0.273E-04
DAV:   6    -0.129393929828E+03   -0.63639E-07   -0.17314E-08   184   0.102E-03
  27 F= -.12939393E+03 E0= -.12939393E+03  d E =-.128905E-03
damped:  g(F)=  0.000E+00 g(S)=  0.000E+00 dE (1.order)= 0.000E+00
 bond charge predicted
       N       E                     dE             d eps       ncg     rms          rms(c)
DAV:   1    -0.129394092385E+03   -0.16262E-03   -0.18258E-03   338   0.221E-01    0.903E-03
DAV:   2    -0.129394094799E+03   -0.24143E-05   -0.33073E-05   236   0.276E-02    0.516E-03
DAV:   3    -0.129394095329E+03   -0.52944E-06   -0.33332E-06   164   0.923E-03    0.267E-03
DAV:   4    -0.129394095675E+03   -0.34589E-06   -0.83839E-07   200   0.461E-03    0.499E-04
DAV:   5    -0.129394095737E+03   -0.62683E-07   -0.22510E-07   164   0.231E-03    0.296E-04
DAV:   6    -0.129394095795E+03   -0.57475E-07   -0.46911E-08   218   0.119E-03
  28 F= -.12939410E+03 E0= -.12939410E+03  d E =-.165966E-03
damped:  g(F)=  0.000E+00 g(S)=  0.000E+00 dE (1.order)= 0.000E+00
 bond charge predicted
       N       E                     dE             d eps       ncg     rms          rms(c)
DAV:   1    -0.129394301892E+03   -0.20616E-03   -0.28651E-03   352   0.278E-01    0.113E-02
DAV:   2    -0.129394305673E+03   -0.37805E-05   -0.53031E-05   247   0.349E-02    0.654E-03
DAV:   3    -0.129394306462E+03   -0.78886E-06   -0.54689E-06   199   0.118E-02    0.346E-03
DAV:   4    -0.129394307000E+03   -0.53830E-06   -0.14431E-06   248   0.591E-03    0.719E-04
DAV:   5    -0.129394307060E+03   -0.60356E-07   -0.41412E-07   174   0.302E-03    0.402E-04
DAV:   6    -0.129394307102E+03   -0.41367E-07   -0.11695E-07   172   0.158E-03
  29 F= -.12939431E+03 E0= -.12939431E+03  d E =-.211307E-03
damped:  g(F)=  0.000E+00 g(S)=  0.000E+00 dE (1.order)= 0.000E+00
 bond charge predicted
       N       E                     dE             d eps       ncg     rms          rms(c)
DAV:   1    -0.129394558906E+03   -0.25185E-03   -0.45911E-03   340   0.353E-01    0.144E-02
DAV:   2    -0.129394565489E+03   -0.65831E-05   -0.91658E-05   270   0.453E-02    0.857E-03
DAV:   3    -0.129394566318E+03   -0.82853E-06   -0.67207E-06   256   0.121E-02    0.480E-03
DAV:   4    -0.129394567060E+03   -0.74217E-06   -0.25766E-06   247   0.768E-03    0.975E-04
DAV:   5    -0.129394567130E+03   -0.69767E-07   -0.75664E-07   176   0.398E-03    0.573E-04
DAV:   6    -0.129394567203E+03   -0.73248E-07   -0.22811E-07   196   0.195E-03
  30 F= -.12939457E+03 E0= -.12939457E+03  d E =-.260101E-03
damped:  g(F)=  0.000E+00 g(S)=  0.000E+00 dE (1.order)= 0.000E+00
 bond charge predicted
       N       E                     dE             d eps       ncg     rms          rms(c)
DAV:   1    -0.129394863953E+03   -0.29682E-03   -0.71545E-03   346   0.441E-01    0.180E-02
DAV:   2    -0.129394874240E+03   -0.10287E-04   -0.14233E-04   241   0.565E-02    0.107E-02
DAV:   3    -0.129394875487E+03   -0.12467E-05   -0.10521E-05   234   0.152E-02    0.595E-03
DAV:   4    -0.129394876651E+03   -0.11641E-05   -0.40366E-06   248   0.957E-03    0.121E-03
DAV:   5    -0.129394876792E+03   -0.14119E-06   -0.12095E-06   190   0.495E-03    0.710E-04
DAV:   6    -0.129394876918E+03   -0.12587E-06   -0.38504E-07   191   0.244E-03
  31 F= -.12939488E+03 E0= -.12939488E+03  d E =-.309715E-03
damped:  g(F)=  0.000E+00 g(S)=  0.000E+00 dE (1.order)= 0.000E+00
 bond charge predicted
       N       E                     dE             d eps       ncg     rms          rms(c)
DAV:   1    -0.129395226036E+03   -0.34924E-03   -0.10689E-02   329   0.537E-01    0.217E-02
DAV:   2    -0.129395241715E+03   -0.15680E-04   -0.21102E-04   284   0.676E-02    0.128E-02
DAV:   3    -0.129395243280E+03   -0.15650E-05   -0.10542E-05   200   0.165E-02    0.706E-03
DAV:   4    -0.129395244989E+03   -0.17089E-05   -0.41327E-06   237   0.107E-02    0.121E-03
DAV:   5    -0.129395245163E+03   -0.17341E-06   -0.10958E-06   181   0.502E-03    0.836E-04
DAV:   6    -0.129395245314E+03   -0.15116E-06   -0.28194E-07   208   0.248E-03
  32 F= -.12939525E+03 E0= -.12939525E+03  d E =-.368396E-03
damped:  g(F)=  0.000E+00 g(S)=  0.000E+00 dE (1.order)= 0.000E+00
 bond charge predicted
       N       E                     dE             d eps       ncg     rms          rms(c)
DAV:   1    -0.129395663675E+03   -0.41851E-03   -0.15799E-02   331   0.651E-01    0.262E-02
DAV:   2    -0.129395686285E+03   -0.22611E-04   -0.30474E-04   299   0.811E-02    0.154E-02
DAV:   3    -0.129395688683E+03   -0.23980E-05   -0.14684E-05   254   0.194E-02    0.833E-03
DAV:   4    -0.129395691107E+03   -0.24236E-05   -0.57525E-06   234   0.127E-02    0.132E-03
DAV:   5    -0.129395691325E+03   -0.21806E-06   -0.15773E-06   272   0.584E-03    0.989E-04
DAV:   6    -0.129395691483E+03   -0.15756E-06   -0.40699E-07   200   0.280E-03
  33 F= -.12939569E+03 E0= -.12939569E+03  d E =-.446169E-03
damped:  g(F)=  0.000E+00 g(S)=  0.000E+00 dE (1.order)= 0.000E+00
 bond charge predicted
       N       E                     dE             d eps       ncg     rms          rms(c)
DAV:   1    -0.129396187289E+03   -0.49596E-03   -0.23609E-02   330   0.795E-01    0.321E-02
DAV:   2    -0.129396223253E+03   -0.35964E-04   -0.47873E-04   315   0.999E-02    0.195E-02
DAV:   3    -0.129396224985E+03   -0.17322E-05   -0.13656E-05   244   0.203E-02    0.108E-02
DAV:   4    -0.129396228399E+03   -0.34140E-05   -0.96586E-06   252   0.157E-02    0.206E-03
DAV:   5    -0.129396228567E+03   -0.16854E-06   -0.17940E-06   264   0.683E-03    0.149E-03
DAV:   6    -0.129396228719E+03   -0.15136E-06   -0.23204E-07   200   0.265E-03
  34 F= -.12939623E+03 E0= -.12939623E+03  d E =-.537236E-03
damped:  g(F)=  0.000E+00 g(S)=  0.000E+00 dE (1.order)= 0.000E+00
 bond charge predicted
       N       E                     dE             d eps       ncg     rms          rms(c)
DAV:   1    -0.129396805347E+03   -0.57678E-03   -0.34988E-02   333   0.966E-01    0.390E-02
DAV:   2    -0.129396859645E+03   -0.54298E-04   -0.71639E-04   364   0.121E-01    0.242E-02
DAV:   3    -0.129396861213E+03   -0.15678E-05   -0.13693E-05   235   0.209E-02    0.136E-02
DAV:   4    -0.129396866647E+03   -0.54338E-05   -0.13927E-05   260   0.190E-02    0.257E-03
DAV:   5    -0.129396866890E+03   -0.24261E-06   -0.26593E-06   249   0.830E-03    0.194E-03
DAV:   6    -0.129396867125E+03   -0.23503E-06   -0.31276E-07   202   0.307E-03
  35 F= -.12939687E+03 E0= -.12939687E+03  d E =-.638406E-03
damped:  g(F)=  0.000E+00 g(S)=  0.000E+00 dE (1.order)= 0.000E+00
 bond charge predicted
       N       E                     dE             d eps       ncg     rms          rms(c)
DAV:   1    -0.129397543753E+03   -0.67686E-03   -0.51222E-02   330   0.117E+00    0.471E-02
DAV:   2    -0.129397621857E+03   -0.78104E-04   -0.10342E-03   363   0.146E-01    0.291E-02
DAV:   3    -0.129397624789E+03   -0.29324E-05   -0.19676E-05   237   0.249E-02    0.163E-02
DAV:   4    -0.129397633754E+03   -0.89655E-05   -0.20031E-05   250   0.225E-02    0.310E-03
DAV:   5    -0.129397634084E+03   -0.32981E-06   -0.37770E-06   231   0.983E-03    0.240E-03
DAV:   6    -0.129397634393E+03   -0.30885E-06   -0.48431E-07   224   0.388E-03
  36 F= -.12939763E+03 E0= -.12939763E+03  d E =-.767269E-03
damped:  g(F)=  0.000E+00 g(S)=  0.000E+00 dE (1.order)= 0.000E+00
 bond charge predicted
       N       E                     dE             d eps       ncg     rms          rms(c)
DAV:   1    -0.129398422262E+03   -0.78818E-03   -0.76130E-02   332   0.143E+00    0.570E-02
DAV:   2    -0.129398537680E+03   -0.11542E-03   -0.15448E-03   364   0.178E-01    0.357E-02
DAV:   3    -0.129398542305E+03   -0.46252E-05   -0.30072E-05   255   0.307E-02    0.202E-02
DAV:   4    -0.129398555723E+03   -0.13418E-04   -0.30945E-05   241   0.278E-02    0.398E-03
DAV:   5    -0.129398556125E+03   -0.40126E-06   -0.58665E-06   272   0.124E-02    0.295E-03
DAV:   6    -0.129398556497E+03   -0.37213E-06   -0.78410E-07   240   0.489E-03
  37 F= -.12939856E+03 E0= -.12939856E+03  d E =-.922104E-03
damped:  g(F)=  0.000E+00 g(S)=  0.000E+00 dE (1.order)= 0.000E+00
 bond charge predicted
       N       E                     dE             d eps       ncg     rms          rms(c)
DAV:   1    -0.129399471660E+03   -0.91554E-03   -0.11280E-01   334   0.174E+00    0.686E-02
DAV:   2    -0.129399638451E+03   -0.16679E-03   -0.22468E-03   363   0.216E-01    0.431E-02
DAV:   3    -0.129399647512E+03   -0.90618E-05   -0.54322E-05   292   0.370E-02    0.241E-02
DAV:   4    -0.129399666528E+03   -0.19015E-04   -0.32019E-05   260   0.314E-02    0.388E-03
DAV:   5    -0.129399667189E+03   -0.66130E-06   -0.69281E-06   234   0.136E-02    0.302E-03
DAV:   6    -0.129399667778E+03   -0.58908E-06   -0.81990E-07   233   0.514E-03
  38 F= -.12939967E+03 E0= -.12939967E+03  d E =-.111128E-02
damped:  g(F)=  0.000E+00 g(S)=  0.000E+00 dE (1.order)= 0.000E+00
 bond charge predicted
       N       E                     dE             d eps       ncg     rms          rms(c)
DAV:   1    -0.129400715333E+03   -0.10481E-02   -0.16691E-01   328   0.211E+00    0.828E-02
DAV:   2    -0.129400957586E+03   -0.24225E-03   -0.32970E-03   347   0.262E-01    0.523E-02
DAV:   3    -0.129400969781E+03   -0.12196E-04   -0.80002E-05   332   0.449E-02    0.292E-02
DAV:   4    -0.129400998934E+03   -0.29153E-04   -0.49055E-05   242   0.390E-02    0.481E-03
DAV:   5    -0.129400999878E+03   -0.94400E-06   -0.10651E-05   272   0.169E-02    0.374E-03
DAV:   6    -0.129401000620E+03   -0.74167E-06   -0.12632E-06   266   0.601E-03
  39 F= -.12940100E+03 E0= -.12940100E+03  d E =-.133284E-02
damped:  g(F)=  0.000E+00 g(S)=  0.000E+00 dE (1.order)= 0.000E+00
 bond charge predicted
       N       E                     dE             d eps       ncg     rms          rms(c)
DAV:   1    -0.129402175594E+03   -0.11757E-02   -0.24410E-01   328   0.255E+00    0.995E-02
DAV:   2    -0.129402529085E+03   -0.35349E-03   -0.47701E-03   364   0.315E-01    0.630E-02
DAV:   3    -0.129402544208E+03   -0.15124E-04   -0.11609E-04   332   0.538E-02    0.351E-02
DAV:   4    -0.129402588322E+03   -0.44113E-04   -0.70294E-05   268   0.469E-02    0.579E-03
DAV:   5    -0.129402589711E+03   -0.13893E-05   -0.15152E-05   262   0.201E-02    0.455E-03
DAV:   6    -0.129402590923E+03   -0.12124E-05   -0.19170E-06   265   0.757E-03
  40 F= -.12940259E+03 E0= -.12940259E+03  d E =-.159030E-02
damped:  g(F)=  0.000E+00 g(S)=  0.000E+00 dE (1.order)= 0.000E+00
 bond charge predicted
       N       E                     dE             d eps       ncg     rms          rms(c)
DAV:   1    -0.129403847994E+03   -0.12583E-02   -0.36219E-01   328   0.311E+00    0.120E-01
DAV:   2    -0.129404379163E+03   -0.53117E-03   -0.70445E-03   364   0.384E-01    0.767E-02
DAV:   3    -0.129404399432E+03   -0.20269E-04   -0.17400E-04   332   0.658E-02    0.429E-02
DAV:   4    -0.129404463296E+03   -0.63865E-04   -0.10570E-04   268   0.571E-02    0.708E-03
DAV:   5    -0.129404465289E+03   -0.19927E-05   -0.23035E-05   280   0.247E-02    0.568E-03
DAV:   6    -0.129404467051E+03   -0.17624E-05   -0.27679E-06   264   0.922E-03
  41 F= -.12940447E+03 E0= -.12940447E+03  d E =-.187613E-02
damped:  g(F)=  0.000E+00 g(S)=  0.000E+00 dE (1.order)= 0.000E+00
 bond charge predicted
       N       E                     dE             d eps       ncg     rms          rms(c)
DAV:   1    -0.129405765500E+03   -0.13002E-02   -0.53455E-01   328   0.377E+00    0.145E-01
DAV:   2    -0.129406543933E+03   -0.77843E-03   -0.10385E-02   379   0.463E-01    0.921E-02
DAV:   3    -0.129406560654E+03   -0.16720E-04   -0.16687E-04   340   0.744E-02    0.508E-02
DAV:   4    -0.129406653658E+03   -0.93005E-04   -0.15159E-04   268   0.675E-02    0.830E-03
DAV:   5    -0.129406657058E+03   -0.33996E-05   -0.31838E-05   304   0.291E-02    0.593E-03
DAV:   6    -0.129406659104E+03   -0.20461E-05   -0.33002E-06   272   0.941E-03
  42 F= -.12940666E+03 E0= -.12940666E+03  d E =-.219205E-02
damped:  g(F)=  0.000E+00 g(S)=  0.000E+00 dE (1.order)= 0.000E+00
 bond charge predicted
       N       E                     dE             d eps       ncg     rms          rms(c)
DAV:   1    -0.129407847118E+03   -0.11901E-02   -0.77654E-01   328   0.455E+00    0.175E-01
DAV:   2    -0.129408969705E+03   -0.11226E-02   -0.14955E-02   364   0.558E-01    0.112E-01
DAV:   3    -0.129409003883E+03   -0.34177E-04   -0.37756E-04   348   0.960E-02    0.627E-02
DAV:   4    -0.129409131987E+03   -0.12810E-03   -0.22054E-04   284   0.816E-02    0.103E-02
DAV:   5    -0.129409135713E+03   -0.37253E-05   -0.44433E-05   296   0.341E-02    0.840E-03
DAV:   6    -0.129409138878E+03   -0.31651E-05   -0.49122E-06   264   0.126E-02
  43 F= -.12940914E+03 E0= -.12940914E+03  d E =-.247977E-02
damped:  g(F)=  0.000E+00 g(S)=  0.000E+00 dE (1.order)= 0.000E+00
 bond charge predicted
       N       E                     dE             d eps       ncg     rms          rms(c)
DAV:   1    -0.129410024314E+03   -0.88860E-03   -0.10896E+00   328   0.539E+00    0.209E-01
DAV:   2    -0.129411666915E+03   -0.16426E-02   -0.21440E-02   339   0.668E-01    0.135E-01
DAV:   3    -0.129411689596E+03   -0.22681E-04   -0.56500E-04   413   0.118E-01    0.768E-02
DAV:   4    -0.129411853058E+03   -0.16346E-03   -0.31442E-04   363   0.968E-02    0.133E-02
DAV:   5    -0.129411857629E+03   -0.45714E-05   -0.53270E-05   304   0.374E-02    0.103E-02
DAV:   6    -0.129411861099E+03   -0.34696E-05   -0.57202E-06   290   0.129E-02
  44 F= -.12941186E+03 E0= -.12941186E+03  d E =-.272222E-02
damped:  g(F)=  0.000E+00 g(S)=  0.000E+00 dE (1.order)= 0.000E+00
 bond charge predicted
       N       E                     dE             d eps       ncg     rms          rms(c)
DAV:   1    -0.129411214503E+03    0.64313E-03   -0.15666E+00   328   0.653E+00    0.262E-01
DAV:   2    -0.129413938611E+03   -0.27241E-02   -0.35318E-02   355   0.866E-01    0.170E-01
DAV:   3    -0.129413889016E+03    0.49595E-04   -0.97243E-04   446   0.155E-01    0.988E-02
DAV:   4    -0.129414052161E+03   -0.16314E-03   -0.47656E-04   379   0.120E-01    0.173E-02
DAV:   5    -0.129414063453E+03   -0.11292E-04   -0.82738E-05   368   0.469E-02    0.129E-02
DAV:   6    -0.129414069343E+03   -0.58906E-05   -0.10390E-05   290   0.172E-02
  45 F= -.12941407E+03 E0= -.12941407E+03  d E =-.220824E-02
damped:  g(F)=  0.000E+00 g(S)=  0.000E+00 dE (1.order)= 0.000E+00
 bond charge predicted
       N       E                     dE             d eps       ncg     rms          rms(c)
DAV:   1    -0.129404128261E+03    0.99352E-02   -0.27418E+00   328   0.883E+00    0.411E-01
DAV:   2    -0.129410689461E+03   -0.65612E-02   -0.87218E-02   392   0.137E+00    0.277E-01
DAV:   3    -0.129409972623E+03    0.71684E-03   -0.21444E-03   446   0.261E-01    0.167E-01
DAV:   4    -0.129409776071E+03    0.19655E-03   -0.16450E-03   445   0.217E-01    0.355E-02
DAV:   5    -0.129409778443E+03   -0.23723E-05   -0.29106E-04   432   0.872E-02    0.216E-02
DAV:   6    -0.129409787195E+03   -0.87521E-05   -0.23270E-05   336   0.259E-02
  46 F= -.12940979E+03 E0= -.12940979E+03  d E =0.428215E-02
damped:  g(F)=  0.000E+00 g(S)=  0.000E+00 dE (1.order)= 0.000E+00
 bond charge predicted
       N       E                     dE             d eps       ncg     rms          rms(c)
DAV:   1    -0.129416616799E+03   -0.68384E-02   -0.74543E-01   328   0.456E+00    0.299E-01
DAV:   2    -0.129419076826E+03   -0.24600E-02   -0.34572E-02   396   0.852E-01    0.172E-01
DAV:   3    -0.129418699861E+03    0.37697E-03   -0.10767E-03   445   0.182E-01    0.969E-02
DAV:   4    -0.129418507990E+03    0.19187E-03   -0.60379E-04   360   0.126E-01    0.247E-02
DAV:   5    -0.129418486811E+03    0.21180E-04   -0.11594E-04   384   0.527E-02    0.126E-02
DAV:   6    -0.129418488349E+03   -0.15378E-05   -0.12549E-05   344   0.182E-02
  47 F= -.12941849E+03 E0= -.12941849E+03  d E =-.870115E-02
damped:  g(F)=  0.000E+00 g(S)=  0.000E+00 dE (1.order)= 0.000E+00
 bond charge predicted
       N       E                     dE             d eps       ncg     rms          rms(c)
DAV:   1    -0.129418605558E+03   -0.11875E-03   -0.99151E-04   392   0.159E-01    0.116E-02
DAV:   2    -0.129418619946E+03   -0.14388E-04   -0.36921E-05   366   0.283E-02    0.630E-03
DAV:   3    -0.129418631819E+03   -0.11874E-04   -0.34820E-06   244   0.944E-03    0.300E-03
DAV:   4    -0.129418645236E+03   -0.13417E-04   -0.11965E-06   299   0.469E-03    0.101E-03
DAV:   5    -0.129418655299E+03   -0.10063E-04   -0.53615E-07   300   0.259E-03    0.556E-04
DAV:   6    -0.129418665508E+03   -0.10209E-04   -0.54547E-07   251   0.226E-03
  48 F= -.12941867E+03 E0= -.12941867E+03  d E =-.177159E-03
damped:  g(F)=  0.000E+00 g(S)=  0.000E+00 dE (1.order)= 0.000E+00
 bond charge predicted
       N       E                     dE             d eps       ncg     rms          rms(c)
DAV:   1    -0.129418799244E+03   -0.14395E-03   -0.30688E-03   362   0.286E-01    0.186E-02
DAV:   2    -0.129418811485E+03   -0.12241E-04   -0.13483E-04   400   0.527E-02    0.106E-02
DAV:   3    -0.129418812129E+03   -0.64433E-06   -0.66032E-06   200   0.132E-02    0.606E-03
DAV:   4    -0.129418814136E+03   -0.20069E-05   -0.39066E-06   283   0.942E-03    0.153E-03
DAV:   5    -0.129418815229E+03   -0.10926E-05   -0.95396E-07   272   0.517E-03    0.804E-04
DAV:   6    -0.129418815772E+03   -0.54385E-06   -0.18507E-07   204   0.223E-03
  49 F= -.12941882E+03 E0= -.12941882E+03  d E =-.150265E-03
damped:  g(F)=  0.000E+00 g(S)=  0.000E+00 dE (1.order)= 0.000E+00
 bond charge predicted
       N       E                     dE             d eps       ncg     rms          rms(c)
DAV:   1    -0.129418870512E+03   -0.55283E-04   -0.39848E-03   364   0.329E-01    0.206E-02
DAV:   2    -0.129418882329E+03   -0.11817E-04   -0.17324E-04   312   0.601E-02    0.121E-02
DAV:   3    -0.129418880334E+03    0.19952E-05   -0.86445E-06   248   0.151E-02    0.703E-03
DAV:   4    -0.129418878744E+03    0.15900E-05   -0.51253E-06   264   0.109E-02    0.182E-03
DAV:   5    -0.129418878652E+03    0.91907E-07   -0.12443E-06   272   0.602E-03    0.952E-04
DAV:   6    -0.129418878821E+03   -0.16896E-06   -0.25785E-07   222   0.259E-03
  50 F= -.12941888E+03 E0= -.12941888E+03  d E =-.630483E-04
damped:  g(F)=  0.000E+00 g(S)=  0.000E+00 dE (1.order)= 0.000E+00
 bond charge predicted
       N       E                     dE             d eps       ncg     rms          rms(c)
DAV:   1    -0.129418895791E+03   -0.17139E-04   -0.25574E-03   375   0.269E-01    0.149E-02
DAV:   2    -0.129418901849E+03   -0.60579E-05   -0.94850E-05   280   0.463E-02    0.908E-03
DAV:   3    -0.129418901054E+03    0.79422E-06   -0.70808E-06   256   0.127E-02    0.550E-03
DAV:   4    -0.129418900362E+03    0.69235E-06   -0.37656E-06   226   0.946E-03    0.143E-03
DAV:   5    -0.129418900497E+03   -0.13451E-06   -0.88594E-07   224   0.482E-03    0.738E-04
DAV:   6    -0.129418900791E+03   -0.29426E-06   -0.24816E-07   224   0.228E-03
  51 F= -.12941890E+03 E0= -.12941890E+03  d E =-.219701E-04
damped:  g(F)=  0.000E+00 g(S)=  0.000E+00 dE (1.order)= 0.000E+00
 bond charge predicted
       N       E                     dE             d eps       ncg     rms          rms(c)
DAV:   1    -0.129418917110E+03   -0.16614E-04   -0.29356E-05   230   0.287E-02    0.160E-03
DAV:   2    -0.129418917680E+03   -0.56919E-06   -0.21338E-06   228   0.796E-03    0.104E-03
DAV:   3    -0.129418918063E+03   -0.38337E-06   -0.22003E-07   227   0.239E-03    0.691E-04
DAV:   4    -0.129418918744E+03   -0.68074E-06   -0.46038E-08   218   0.140E-03    0.180E-04
DAV:   5    -0.129418919097E+03   -0.35343E-06    0.11600E-08   248   0.684E-04    0.119E-04
DAV:   6    -0.129418919468E+03   -0.37124E-06    0.34427E-08   208   0.432E-04
  52 F= -.12941892E+03 E0= -.12941892E+03  d E =-.186775E-04
damped:  g(F)=  0.000E+00 g(S)=  0.000E+00 dE (1.order)= 0.000E+00
 bond charge predicted
       N       E                     dE             d eps       ncg     rms          rms(c)
DAV:   1    -0.129418948178E+03   -0.29081E-04   -0.11191E-04   269   0.555E-02    0.295E-03
DAV:   2    -0.129418948911E+03   -0.73249E-06   -0.67990E-06   235   0.139E-02    0.187E-03
DAV:   3    -0.129418949114E+03   -0.20341E-06   -0.66159E-07   256   0.428E-03    0.126E-03
DAV:   4    -0.129418949378E+03   -0.26446E-06   -0.16397E-07   208   0.241E-03    0.343E-04
DAV:   5    -0.129418949478E+03   -0.99346E-07   -0.46594E-09   256   0.111E-03    0.207E-04
DAV:   6    -0.129418949571E+03   -0.92798E-07    0.33827E-08   202   0.615E-04
  53 F= -.12941895E+03 E0= -.12941895E+03  d E =-.301023E-04
damped:  g(F)=  0.000E+00 g(S)=  0.000E+00 dE (1.order)= 0.000E+00
 bond charge predicted
       N       E                     dE             d eps       ncg     rms          rms(c)
DAV:   1    -0.129418985432E+03   -0.35955E-04   -0.22785E-04   320   0.788E-02    0.422E-03
DAV:   2    -0.129418986190E+03   -0.75774E-06   -0.11514E-05   227   0.174E-02    0.266E-03
DAV:   3    -0.129418986161E+03    0.29280E-07   -0.11655E-06   264   0.558E-03    0.167E-03
DAV:   4    -0.129418986041E+03    0.11989E-06   -0.31652E-07   210   0.305E-03    0.463E-04
DAV:   5    -0.129418986029E+03    0.11914E-07   -0.50600E-08   238   0.150E-03    0.257E-04
DAV:   6    -0.129418986052E+03   -0.22901E-07    0.14827E-08   193   0.797E-04
  54 F= -.12941899E+03 E0= -.12941899E+03  d E =-.364814E-04
damped:  g(F)=  0.000E+00 g(S)=  0.000E+00 dE (1.order)= 0.000E+00
 bond charge predicted
       N       E                     dE             d eps       ncg     rms          rms(c)
DAV:   1    -0.129419023546E+03   -0.37517E-04   -0.34620E-04   297   0.972E-02    0.512E-03
DAV:   2    -0.129419024387E+03   -0.84090E-06   -0.15258E-05   203   0.187E-02    0.325E-03
DAV:   3    -0.129419024248E+03    0.13957E-06   -0.15915E-06   256   0.628E-03    0.196E-03
DAV:   4    -0.129419024017E+03    0.23117E-06   -0.45303E-07   200   0.349E-03    0.549E-04
DAV:   5    -0.129419024007E+03    0.92864E-08   -0.84575E-08   164   0.179E-03    0.298E-04
DAV:   6    -0.129419024058E+03   -0.51088E-07    0.42582E-09   210   0.935E-04
  55 F= -.12941902E+03 E0= -.12941902E+03  d E =-.380063E-04
damped:  g(F)=  0.000E+00 g(S)=  0.000E+00 dE (1.order)= 0.000E+00
 bond charge predicted
       N       E                     dE             d eps       ncg     rms          rms(c)
DAV:   1    -0.129419059074E+03   -0.35067E-04   -0.43409E-04   330   0.109E-01    0.636E-03
DAV:   2    -0.129419059937E+03   -0.86242E-06   -0.16257E-05   202   0.190E-02    0.367E-03
DAV:   3    -0.129419059746E+03    0.19120E-06   -0.17433E-06   217   0.649E-03    0.195E-03
DAV:   4    -0.129419059559E+03    0.18702E-06   -0.46450E-07   174   0.340E-03    0.595E-04
DAV:   5    -0.129419059568E+03   -0.94819E-08   -0.99853E-08   164   0.185E-03    0.281E-04
DAV:   6    -0.129419059651E+03   -0.82848E-07   -0.10158E-09   166   0.932E-04
  56 F= -.12941906E+03 E0= -.12941906E+03  d E =-.355927E-04
damped:  g(F)=  0.000E+00 g(S)=  0.000E+00 dE (1.order)= 0.000E+00
 bond charge predicted
       N       E                     dE             d eps       ncg     rms          rms(c)
DAV:   1    -0.129419090488E+03   -0.30920E-04   -0.45734E-04   296   0.113E-01    0.558E-03
DAV:   2    -0.129419091632E+03   -0.11432E-05   -0.18583E-05   200   0.209E-02    0.355E-03
DAV:   3    -0.129419091537E+03    0.94840E-07   -0.19332E-06   164   0.701E-03    0.214E-03
DAV:   4    -0.129419091388E+03    0.14903E-06   -0.54667E-07   174   0.386E-03    0.587E-04
DAV:   5    -0.129419091437E+03   -0.49483E-07   -0.11030E-07   164   0.198E-03    0.324E-04
DAV:   6    -0.129419091545E+03   -0.10787E-06   -0.47844E-09   174   0.103E-03
  57 F= -.12941909E+03 E0= -.12941909E+03  d E =-.318940E-04
damped:  g(F)=  0.000E+00 g(S)=  0.000E+00 dE (1.order)= 0.000E+00
 bond charge predicted
       N       E                     dE             d eps       ncg     rms          rms(c)
DAV:   1    -0.129419123942E+03   -0.32505E-04   -0.51703E-04   296   0.121E-01    0.560E-03
DAV:   2    -0.129419125185E+03   -0.12432E-05   -0.18829E-05   200   0.214E-02    0.353E-03
DAV:   3    -0.129419125151E+03    0.34055E-07   -0.19498E-06   164   0.719E-03    0.212E-03
DAV:   4    -0.129419125084E+03    0.66515E-07   -0.53617E-07   164   0.390E-03    0.554E-04
DAV:   5    -0.129419125155E+03   -0.70328E-07   -0.10960E-07   164   0.199E-03    0.315E-04
DAV:   6    -0.129419125273E+03   -0.11882E-06   -0.60001E-09   165   0.104E-03
  58 F= -.12941913E+03 E0= -.12941913E+03  d E =-.337284E-04
damped:  g(F)=  0.000E+00 g(S)=  0.000E+00 dE (1.order)= 0.000E+00
 bond charge predicted
       N       E                     dE             d eps       ncg     rms          rms(c)
DAV:   1    -0.129419165866E+03   -0.40711E-04   -0.54849E-04   296   0.124E-01    0.526E-03
DAV:   2    -0.129419167042E+03   -0.11760E-05   -0.16354E-05   200   0.204E-02    0.327E-03
DAV:   3    -0.129419167104E+03   -0.62762E-07   -0.16626E-06   164   0.686E-03    0.191E-03
DAV:   4    -0.129419167173E+03   -0.68158E-07   -0.43136E-07   164   0.362E-03    0.449E-04
DAV:   5    -0.129419167270E+03   -0.97173E-07   -0.87176E-08   164   0.184E-03    0.267E-04
DAV:   6    -0.129419167389E+03   -0.11950E-06   -0.80461E-10   200   0.948E-04
  59 F= -.12941917E+03 E0= -.12941917E+03  d E =-.421158E-04
damped:  g(F)=  0.000E+00 g(S)=  0.000E+00 dE (1.order)= 0.000E+00
 reached required accuracy - stopping structural energy minimisation
