unknown system                          
           1
    30.000000    0.000000    0.000000
     0.000000   30.000000    0.000000
     0.000000    0.000000   30.000000
   H    C    N    O 
  12   6   2   2
Direct configuration=     1
   0.37668434  0.53391498  0.49494247
   0.37898420  0.48647521  0.45915497
   0.38190148  0.47909993  0.51809575
   0.44685344  0.43981498  0.49858330
   0.51819490  0.42577952  0.50574359
   0.57128112  0.46188675  0.45047885
   0.52683763  0.49757890  0.43328194
   0.52244873  0.43885054  0.42518250
   0.51132822  0.54502983  0.50915459
   0.58722289  0.54215400  0.57464140
   0.59471406  0.56977912  0.52219817
   0.55521575  0.59069875  0.56198761
   0.39172459  0.50094344  0.49035182
   0.44197905  0.50617333  0.48778345
   0.51387201  0.46029310  0.49424862
   0.53484027  0.46495148  0.44763410
   0.54262626  0.48715387  0.52733926
   0.57013492  0.56039810  0.54795258
   0.46539679  0.46789283  0.49486023
   0.53659459  0.53180049  0.52838718
   0.45939105  0.54304219  0.48011744
   0.57222240  0.46699961  0.54799523
Direct configuration=     2
   0.37668969  0.53390624  0.49492942
   0.37895496  0.48647363  0.45914065
   0.38186532  0.47909069  0.51807917
   0.44682381  0.43982421  0.49866503
   0.51818482  0.42579155  0.50572598
   0.57124832  0.46185943  0.45044162
   0.52684384  0.49765545  0.43324324
   0.52243457  0.43881887  0.42512975
   0.51133189  0.54500547  0.50909700
   0.58724929  0.54214866  0.57462562
   0.59476427  0.56984155  0.52233173
   0.55515285  0.59070853  0.56195149
   0.39178211  0.50092377  0.49034858
   0.44191583  0.50617848  0.48776008
   0.51392418  0.46028488  0.49417748
   0.53474949  0.46495414  0.44773471
   0.54262772  0.48712289  0.52736057
   0.57020411  0.56046061  0.54798846
   0.46538859  0.46789796  0.49484683
   0.53662500  0.53172085  0.52844851
   0.45943783  0.54300371  0.48009671
   0.57224994  0.46703966  0.54799258
Direct configuration=     3
   0.37670444  0.53388027  0.49490899
   0.37892096  0.48647629  0.45913122
   0.38181945  0.47907843  0.51805242
   0.44679099  0.43984573  0.49878493
   0.51817278  0.42580290  0.50569880
   0.57117783  0.46182152  0.45039151
   0.52685774  0.49772522  0.43321099
   0.52242036  0.43880367  0.42508283
   0.51138528  0.54493914  0.50905093
   0.58729623  0.54214611  0.57461642
   0.59485755  0.56994079  0.52249687
   0.55506080  0.59072850  0.56190582
   0.39180282  0.50090938  0.49033364
   0.44190169  0.50616701  0.48773111
   0.51394778  0.46027660  0.49413627
   0.53465471  0.46497114  0.44776593
   0.54263520  0.48707601  0.52737623
   0.57024924  0.56049693  0.54804812
   0.46536351  0.46790027  0.49482729
   0.53662507  0.53171066  0.52849321
   0.45948900  0.54295233  0.48006385
   0.57231469  0.46706276  0.54800818
Direct configuration=     4
   0.37672623  0.53384308  0.49488304
   0.37888624  0.48648330  0.45912712
   0.38176960  0.47906494  0.51801538
   0.44675862  0.43987873  0.49893751
   0.51816051  0.42580520  0.50566251
   0.57106834  0.46177713  0.45033267
   0.52687718  0.49777184  0.43319433
   0.52240415  0.43881665  0.42505220
   0.51148023  0.54484238  0.50901602
   0.58736108  0.54214540  0.57462796
   0.59498924  0.57007002  0.52267636
   0.55494976  0.59075483  0.56185939
   0.39177461  0.50089897  0.49030616
   0.44194280  0.50613639  0.48770025
   0.51391805  0.46027367  0.49414554
   0.53458274  0.46500334  0.44769040
   0.54266374  0.48704330  0.52739158
   0.57024220  0.56050063  0.54811816
   0.46533477  0.46788678  0.49480781
   0.53661827  0.53175105  0.52852209
   0.45953919  0.54289947  0.48001612
   0.57240008  0.46706513  0.54803338
Direct configuration=     5
   0.37674746  0.53381177  0.49485403
   0.37884856  0.48649122  0.45911884
   0.38171698  0.47905059  0.51796870
   0.44672252  0.43991596  0.49912387
   0.51814846  0.42579151  0.50561716
   0.57093383  0.46172827  0.45026528
   0.52689561  0.49780388  0.43318717
   0.52237491  0.43885316  0.42502825
   0.51158696  0.54474222  0.50897149
   0.58743380  0.54214686  0.57466951
   0.59514068  0.57021915  0.52287473
   0.55482822  0.59077955  0.56181995
   0.39172536  0.50088233  0.49027024
   0.44199843  0.50609434  0.48766810
   0.51384559  0.46028212  0.49418603
   0.53453564  0.46504255  0.44754401
   0.54272773  0.48705283  0.52741908
   0.57018968  0.56049572  0.54818049
   0.46532342  0.46784792  0.49479731
   0.53665392  0.53176886  0.52855547
   0.45959240  0.54285220  0.47994945
   0.57247689  0.46705992  0.54804738
Direct configuration=     6
   0.37676005  0.53380340  0.49482427
   0.37880299  0.48649430  0.45909154
   0.38166064  0.47903361  0.51791572
   0.44667618  0.43994431  0.49934599
   0.51813716  0.42576402  0.50556304
   0.57080820  0.46167544  0.45018838
   0.52690379  0.49784746  0.43317131
   0.52231574  0.43889455  0.42498603
   0.51168578  0.54465802  0.50890446
   0.58749288  0.54216063  0.57473628
   0.59528070  0.57037372  0.52310363
   0.55470110  0.59079391  0.56179497
   0.39170344  0.50085427  0.49023285
   0.44202052  0.50605393  0.48763260
   0.51378136  0.46030356  0.49421067
   0.53448849  0.46507668  0.44742419
   0.54281863  0.48708932  0.52745512
   0.57014259  0.56051318  0.54823436
   0.46533244  0.46779537  0.49480348
   0.53675035  0.53172554  0.52859490
   0.45965090  0.54280307  0.47986418
   0.57253239  0.46705557  0.54803929
Direct configuration=     7
   0.37676559  0.53381551  0.49479103
   0.37874528  0.48649052  0.45903591
   0.38159607  0.47900967  0.51785555
   0.44661749  0.43995859  0.49962669
   0.51812712  0.42573607  0.50549428
   0.57071443  0.46161288  0.45009518
   0.52689610  0.49792300  0.43313169
   0.52220694  0.43893169  0.42490435
   0.51180335  0.54457485  0.50882531
   0.58752017  0.54220735  0.57482163
   0.59539854  0.57053823  0.52338308
   0.55455645  0.59079431  0.56178992
   0.39172548  0.50082495  0.49019126
   0.44200548  0.50601686  0.48758961
   0.51377883  0.46032623  0.49419119
   0.53440513  0.46510398  0.44739460
   0.54291061  0.48709610  0.52747155
   0.57015546  0.56056131  0.54830948
   0.46533216  0.46775419  0.49483137
   0.53687654  0.53167387  0.52860553
   0.45971220  0.54272804  0.47975652
   0.57259600  0.46703677  0.54802242
Direct configuration=     8
   0.37677438  0.53382735  0.49475124
   0.37868558  0.48648605  0.45896094
   0.38152894  0.47898005  0.51778633
   0.44656308  0.43996650  0.49997121
   0.51812223  0.42572762  0.50540884
   0.57066290  0.46153919  0.44998670
   0.52687083  0.49801477  0.43307362
   0.52203969  0.43897678  0.42479405
   0.51196463  0.54448459  0.50875407
   0.58750266  0.54230184  0.57492655
   0.59549243  0.57071472  0.52368710
   0.55439616  0.59077740  0.56181556
   0.39175545  0.50081829  0.49013663
   0.44198758  0.50597496  0.48754193
   0.51385208  0.46032267  0.49413878
   0.53427973  0.46512545  0.44744230
   0.54298349  0.48702708  0.52743824
   0.57023437  0.56062781  0.54843108
   0.46528972  0.46773932  0.49488981
   0.53700221  0.53168621  0.52854582
   0.45976330  0.54261590  0.47962636
   0.57269293  0.46698166  0.54801195
Direct configuration=     9
   0.37679744  0.53382146  0.49470116
   0.37864502  0.48649803  0.45889038
   0.38147131  0.47895849  0.51769264
   0.44654000  0.43999087  0.50039166
   0.51813189  0.42573277  0.50531138
   0.57061091  0.46145351  0.44986233
   0.52683029  0.49806519  0.43303197
   0.52181057  0.43907490  0.42470685
   0.51214851  0.54442349  0.50866922
   0.58745333  0.54243213  0.57509304
   0.59558930  0.57092205  0.52396227
   0.55423215  0.59074214  0.56189144
   0.39171882  0.50083668  0.49005798
   0.44198381  0.50591211  0.48749657
   0.51390788  0.46028005  0.49411088
   0.53416730  0.46514099  0.44742634
   0.54308628  0.48694387  0.52737161
   0.57027916  0.56070175  0.54857278
   0.46524218  0.46771171  0.49500215
   0.53720285  0.53168765  0.52843159
   0.45980410  0.54249139  0.47946084
   0.57279035  0.46689610  0.54798491
Direct configuration=    10
   0.37681818  0.53383169  0.49464410
   0.37862583  0.48653224  0.45882079
   0.38142389  0.47895827  0.51756614
   0.44654691  0.44002433  0.50088980
   0.51816686  0.42569425  0.50522657
   0.57050369  0.46135466  0.44971935
   0.52677575  0.49804928  0.43303120
   0.52152225  0.43923026  0.42466766
   0.51233964  0.54441602  0.50855882
   0.58739723  0.54257297  0.57534643
   0.59569599  0.57117025  0.52418876
   0.55406358  0.59070578  0.56202794
   0.39163948  0.50082947  0.48997000
   0.44196339  0.50583636  0.48745874
   0.51385190  0.46026172  0.49412163
   0.53412364  0.46514505  0.44727813
   0.54326761  0.48693222  0.52731080
   0.57024019  0.56076240  0.54866412
   0.46527275  0.46765149  0.49517475
   0.53750442  0.53159115  0.52827896
   0.45984502  0.54237522  0.47925638
   0.57285479  0.46679283  0.54791940
Direct configuration=    11
   0.37681946  0.53388264  0.49457996
   0.37860986  0.48657683  0.45870361
   0.38136362  0.47895962  0.51743399
   0.44659377  0.44004852  0.50148840
   0.51823510  0.42560709  0.50517230
   0.57037498  0.46122424  0.44954625
   0.52669986  0.49802168  0.43304767
   0.52114340  0.43937494  0.42462403
   0.51262460  0.54440531  0.50848097
   0.58730785  0.54275463  0.57563428
   0.59576601  0.57145844  0.52439816
   0.55386279  0.59066821  0.56222157
   0.39162695  0.50080792  0.48989355
   0.44196916  0.50576155  0.48742855
   0.51380611  0.46029435  0.49411279
   0.53406136  0.46513412  0.44716413
   0.54344683  0.48687233  0.52718801
   0.57024944  0.56077147  0.54872135
   0.46529555  0.46764407  0.49540298
   0.53775533  0.53161193  0.52799353
   0.45986083  0.54221260  0.47902050
   0.57297041  0.46662508  0.54786363
Direct configuration=    12
   0.37683586  0.53390473  0.49449921
   0.37860726  0.48663545  0.45854551
   0.38126963  0.47892833  0.51733324
   0.44671165  0.44009969  0.50218164
   0.51831361  0.42560405  0.50511359
   0.57028294  0.46104526  0.44933440
   0.52660683  0.49806413  0.43304429
   0.52067653  0.43945858  0.42453612
   0.51285256  0.54446679  0.50830415
   0.58716196  0.54295329  0.57588253
   0.59579293  0.57177595  0.52463426
   0.55366533  0.59053374  0.56240062
   0.39167627  0.50085939  0.48979938
   0.44195483  0.50566724  0.48741557
   0.51393280  0.46019981  0.49409007
   0.53383224  0.46510009  0.44720548
   0.54362470  0.48678490  0.52704345
   0.57029728  0.56088610  0.54882087
   0.46525354  0.46764708  0.49568763
   0.53816621  0.53152851  0.52776997
   0.45989229  0.54206445  0.47873112
   0.57303703  0.46650872  0.54774611
Direct configuration=    13
   0.37688046  0.53391665  0.49440264
   0.37867026  0.48675345  0.45842551
   0.38116843  0.47893539  0.51717790
   0.44682710  0.44011076  0.50300191
   0.51841905  0.42555579  0.50510878
   0.57002168  0.46081047  0.44906743
   0.52649946  0.49811025  0.43308812
   0.52015685  0.43953154  0.42448937
   0.51322366  0.54445867  0.50816825
   0.58702970  0.54314068  0.57606205
   0.59583335  0.57216413  0.52489182
   0.55340652  0.59037569  0.56255076
   0.39162210  0.50081688  0.48971748
   0.44199433  0.50568755  0.48739121
   0.51394945  0.46018860  0.49412789
   0.53361386  0.46501392  0.44712347
   0.54378770  0.48674945  0.52686951
   0.57037996  0.56095433  0.54895564
   0.46543699  0.46763209  0.49601579
   0.53837727  0.53158781  0.52740350
   0.45994608  0.54187991  0.47840546
   0.57320233  0.46633948  0.54767252
Direct configuration=    14
   0.37688332  0.53391310  0.49440160
   0.37867574  0.48675415  0.45841740
   0.38116132  0.47892967  0.51718160
   0.44685216  0.44014148  0.50301402
   0.51842365  0.42555690  0.50511975
   0.57000002  0.46079501  0.44905713
   0.52649869  0.49809540  0.43309981
   0.52014565  0.43952225  0.42449532
   0.51318508  0.54448171  0.50812480
   0.58705226  0.54311185  0.57606254
   0.59584067  0.57217671  0.52489789
   0.55339616  0.59038106  0.56254506
   0.39164060  0.50082813  0.48972363
   0.44200062  0.50561879  0.48740773
   0.51395517  0.46018276  0.49413347
   0.53360614  0.46502786  0.44710134
   0.54382626  0.48675153  0.52689775
   0.57033567  0.56095419  0.54890947
   0.46538264  0.46763576  0.49602690
   0.53845391  0.53154746  0.52746797
   0.45996611  0.54191958  0.47838710
   0.57316508  0.46638770  0.54764441
Direct configuration=    15
   0.37689143  0.53390851  0.49439969
   0.37869052  0.48675883  0.45840587
   0.38114664  0.47892045  0.51718568
   0.44688631  0.44018197  0.50304795
   0.51843276  0.42555821  0.50514302
   0.56995652  0.46076206  0.44903387
   0.52649377  0.49807646  0.43311925
   0.52012083  0.43950421  0.42450651
   0.51315337  0.54449884  0.50807061
   0.58708969  0.54306700  0.57604602
   0.59585464  0.57220444  0.52491021
   0.55337077  0.59039028  0.56253106
   0.39167287  0.50083970  0.48973370
   0.44202561  0.50556331  0.48742224
   0.51395837  0.46018113  0.49414227
   0.53358405  0.46504183  0.44706793
   0.54385863  0.48677166  0.52692082
   0.57028245  0.56094824  0.54885385
   0.46532391  0.46764422  0.49604875
   0.53852175  0.53151293  0.52753464
   0.45998418  0.54193717  0.47836453
   0.57314854  0.46644080  0.54762758
Direct configuration=    16
   0.37689292  0.53390877  0.49439957
   0.37869316  0.48676029  0.45840652
   0.38114567  0.47892051  0.51718472
   0.44688381  0.44017858  0.50305380
   0.51843353  0.42555847  0.50514503
   0.56995324  0.46075889  0.44903100
   0.52649217  0.49807894  0.43311915
   0.52011775  0.43950296  0.42450679
   0.51316330  0.54449234  0.50807514
   0.58708977  0.54306723  0.57603947
   0.59585520  0.57220709  0.52491157
   0.55336753  0.59038989  0.56252910
   0.39167366  0.50083734  0.48973364
   0.44202754  0.50557824  0.48741938
   0.51395648  0.46018370  0.49414233
   0.53358039  0.46503823  0.44706943
   0.54385141  0.48677471  0.52691510
   0.57028923  0.56094725  0.54886121
   0.46533531  0.46764531  0.49605023
   0.53850298  0.53152293  0.52752216
   0.45998210  0.54192555  0.47836543
   0.57316050  0.46643494  0.54763523
Direct configuration=    17
   0.37689589  0.53390916  0.49439932
   0.37869846  0.48676314  0.45840763
   0.38114375  0.47892053  0.51718284
   0.44687959  0.44017289  0.50306537
   0.51843515  0.42555918  0.50514902
   0.56994660  0.46075250  0.44902519
   0.52648903  0.49808356  0.43311910
   0.52011144  0.43950044  0.42450731
   0.51318107  0.54448071  0.50808246
   0.58709018  0.54306701  0.57602702
   0.59585632  0.57221232  0.52491448
   0.55336118  0.59038902  0.56252527
   0.39167536  0.50083307  0.48973360
   0.44203067  0.50560378  0.48741461
   0.51395325  0.46018825  0.49414260
   0.53357320  0.46503157  0.44707210
   0.54383941  0.48677981  0.52690544
   0.57030112  0.56094571  0.54887438
   0.46535593  0.46764740  0.49605339
   0.53846957  0.53154072  0.52750011
   0.45997927  0.54190552  0.47836627
   0.57318135  0.46642571  0.54764839
Direct configuration=    18
   0.37690054  0.53390931  0.49439885
   0.37870678  0.48676740  0.45840883
   0.38114089  0.47892031  0.51718005
   0.44687524  0.44016696  0.50308298
   0.51843782  0.42556086  0.50515507
   0.56993603  0.46074242  0.44901591
   0.52648426  0.49808979  0.43311939
   0.52010114  0.43949643  0.42450802
   0.51320277  0.54446650  0.50808896
   0.58709146  0.54306473  0.57600955
   0.59585802  0.57222030  0.52491955
   0.55335162  0.59038745  0.56251955
   0.39167825  0.50082771  0.48973374
   0.44203369  0.50563179  0.48740973
   0.51394958  0.46019380  0.49414353
   0.53356223  0.46502268  0.44707527
   0.54382741  0.48678485  0.52689514
   0.57031512  0.56094461  0.54889061
   0.46538202  0.46765036  0.49605892
   0.53842902  0.53156227  0.52747394
   0.45997848  0.54188317  0.47836493
   0.57320558  0.46641808  0.54766320
Direct configuration=    19
   0.37690088  0.53390921  0.49439880
   0.37870738  0.48676765  0.45840876
   0.38114073  0.47892023  0.51717989
   0.44687556  0.44016735  0.50308411
   0.51843804  0.42556113  0.50515545
   0.56993524  0.46074167  0.44901520
   0.52648396  0.49808994  0.43311952
   0.52010028  0.43949611  0.42450805
   0.51320263  0.54446658  0.50808806
   0.58709174  0.54306405  0.57600886
   0.59585812  0.57222082  0.52492004
   0.55335105  0.59038729  0.56251924
   0.39167852  0.50082770  0.48973381
   0.44203352  0.50563073  0.48741007
   0.51394972  0.46019374  0.49414372
   0.53356153  0.46502247  0.44707521
   0.54382824  0.48678455  0.52689560
   0.57031483  0.56094488  0.54889052
   0.46538216  0.46765047  0.49605948
   0.53842936  0.53156209  0.52747437
   0.45997932  0.54188386  0.47836416
   0.57320519  0.46641927  0.54766279
Direct configuration=    20
   0.37690154  0.53390900  0.49439870
   0.37870857  0.48676814  0.45840864
   0.38114039  0.47892006  0.51717956
   0.44687618  0.44016813  0.50308637
   0.51843849  0.42556167  0.50515622
   0.56993364  0.46074016  0.44901378
   0.52648335  0.49809024  0.43311978
   0.52009856  0.43949549  0.42450810
   0.51320237  0.54446672  0.50808627
   0.58709230  0.54306270  0.57600746
   0.59585833  0.57222186  0.52492102
   0.55334991  0.59038697  0.56251861
   0.39167905  0.50082767  0.48973396
   0.44203321  0.50562868  0.48741072
   0.51395000  0.46019363  0.49414411
   0.53356013  0.46502204  0.44707509
   0.54382985  0.48678398  0.52689647
   0.57031427  0.56094543  0.54889035
   0.46538245  0.46765068  0.49606062
   0.53843000  0.53156174  0.52747518
   0.45998096  0.54188517  0.47836263
   0.57320448  0.46642160  0.54766201
Direct configuration=    21
   0.37690255  0.53390869  0.49439856
   0.37871036  0.48676888  0.45840844
   0.38113988  0.47891980  0.51717908
   0.44687711  0.44016928  0.50308978
   0.51843916  0.42556247  0.50515738
   0.56993125  0.46073790  0.44901164
   0.52648243  0.49809068  0.43312018
   0.52009596  0.43949455  0.42450818
   0.51320203  0.54446690  0.50808361
   0.58709313  0.54306068  0.57600538
   0.59585864  0.57222343  0.52492250
   0.55334818  0.59038650  0.56251767
   0.39167984  0.50082761  0.48973418
   0.44203286  0.50562580  0.48741164
   0.51395042  0.46019347  0.49414470
   0.53355802  0.46502141  0.44707491
   0.54383211  0.48678324  0.52689768
   0.57031344  0.56094622  0.54889012
   0.46538290  0.46765100  0.49606233
   0.53843089  0.53156126  0.52747635
   0.45998332  0.54188693  0.47836038
   0.57320356  0.46642499  0.54766096
Direct configuration=    22
   0.37690391  0.53390829  0.49439836
   0.37871275  0.48676987  0.45840816
   0.38113920  0.47891946  0.51717843
   0.44687836  0.44017078  0.50309437
   0.51844007  0.42556351  0.50515893
   0.56992805  0.46073488  0.44900877
   0.52648119  0.49809125  0.43312072
   0.52009248  0.43949332  0.42450828
   0.51320167  0.54446708  0.50808011
   0.58709422  0.54305800  0.57600259
   0.59585906  0.57222552  0.52492448
   0.55334585  0.59038589  0.56251645
   0.39168091  0.50082753  0.48973448
   0.44203260  0.50562238  0.48741277
   0.51395098  0.46019328  0.49414547
   0.53355519  0.46502058  0.44707465
   0.54383485  0.48678247  0.52689909
   0.57031238  0.56094722  0.54888984
   0.46538354  0.46765140  0.49606463
   0.53843192  0.53156069  0.52747778
   0.45998630  0.54188892  0.47835745
   0.57320264  0.46642929  0.54765976
Direct configuration=    23
   0.37690562  0.53390780  0.49439812
   0.37871575  0.48677110  0.45840778
   0.38113834  0.47891901  0.51717760
   0.44687990  0.44017263  0.50310016
   0.51844121  0.42556477  0.50516087
   0.56992404  0.46073108  0.44900515
   0.52647963  0.49809196  0.43312141
   0.52008808  0.43949180  0.42450841
   0.51320137  0.54446720  0.50807584
   0.58709554  0.54305468  0.57599911
   0.59585960  0.57222816  0.52492697
   0.55334290  0.59038516  0.56251496
   0.39168224  0.50082739  0.48973486
   0.44203259  0.50561878  0.48741401
   0.51395169  0.46019309  0.49414644
   0.53355165  0.46501957  0.44707430
   0.54383785  0.48678186  0.52690054
   0.57031112  0.56094839  0.54888955
   0.46538438  0.46765187  0.49606754
   0.53843298  0.53156010  0.52747938
   0.45998975  0.54189083  0.47835391
   0.57320196  0.46643433  0.54765859
Direct configuration=    24
   0.37690770  0.53390724  0.49439783
   0.37871935  0.48677257  0.45840731
   0.38113730  0.47891847  0.51717661
   0.44688173  0.44017477  0.50310719
   0.51844258  0.42556623  0.50516320
   0.56991922  0.46072652  0.44900077
   0.52647774  0.49809277  0.43312226
   0.52008274  0.43949001  0.42450856
   0.51320123  0.54446719  0.50807085
   0.58709708  0.54305075  0.57599496
   0.59586024  0.57223134  0.52492999
   0.55333930  0.59038431  0.56251323
   0.39168385  0.50082719  0.48973532
   0.44203303  0.50561538  0.48741528
   0.51395254  0.46019293  0.49414759
   0.53354739  0.46501838  0.44707385
   0.54384085  0.48678162  0.52690184
   0.57030971  0.56094968  0.54888927
   0.46538546  0.46765239  0.49607107
   0.53843392  0.53155956  0.52748100
   0.45999350  0.54189230  0.47834984
   0.57320179  0.46643987  0.54765765
Direct configuration=    25
   0.37691042  0.53390656  0.49439746
   0.37872404  0.48677446  0.45840663
   0.38113595  0.47891773  0.51717530
   0.44688408  0.44017744  0.50311639
   0.51844439  0.42556801  0.50516622
   0.56991297  0.46072060  0.44899505
   0.52647528  0.49809379  0.43312338
   0.52007575  0.43948776  0.42450875
   0.51320139  0.54446697  0.50806462
   0.58709898  0.54304573  0.57598961
   0.59586108  0.57223549  0.52493391
   0.55333456  0.59038328  0.56251109
   0.39168596  0.50082689  0.48973592
   0.44203421  0.50561230  0.48741659
   0.51395364  0.46019281  0.49414906
   0.53354187  0.46501689  0.44707320
   0.54384388  0.48678199  0.52690290
   0.57030803  0.56095116  0.54888903
   0.46538696  0.46765300  0.49607569
   0.53843462  0.53155913  0.52748266
   0.45999780  0.54189304  0.47834480
   0.57320251  0.46644632  0.54765709
Direct configuration=    26
   0.37691391  0.53390576  0.49439699
   0.37873001  0.48677686  0.45840569
   0.38113422  0.47891677  0.51717363
   0.44688702  0.44018069  0.50312824
   0.51844671  0.42557013  0.50517006
   0.56990503  0.46071307  0.44898770
   0.52647210  0.49809501  0.43312485
   0.52006674  0.43948501  0.42450897
   0.51320207  0.54446637  0.50805702
   0.58710126  0.54303945  0.57598289
   0.59586216  0.57224078  0.52493895
   0.55332842  0.59038204  0.56250852
   0.39168868  0.50082645  0.48973668
   0.44203651  0.50561009  0.48741784
   0.51395503  0.46019280  0.49415092
   0.53353485  0.46501508  0.44707227
   0.54384664  0.48678333  0.52690342
   0.57030609  0.56095277  0.54888890
   0.46538901  0.46765374  0.49608165
   0.53843479  0.53155900  0.52748413
   0.46000256  0.54189245  0.47833868
   0.57320465  0.46645355  0.54765724
Direct configuration=    27
   0.37691835  0.53390484  0.49439641
   0.37873752  0.48677984  0.45840438
   0.38113207  0.47891551  0.51717150
   0.44689062  0.44018455  0.50314334
   0.51844969  0.42557258  0.50517487
   0.56989509  0.46070363  0.44897837
   0.52646806  0.49809644  0.43312672
   0.52005526  0.43948174  0.42450924
   0.51320357  0.54446523  0.50804791
   0.58710390  0.54303174  0.57597461
   0.59586350  0.57224744  0.52494532
   0.55332058  0.59038059  0.56250553
   0.39169221  0.50082582  0.48973763
   0.44204032  0.50560932  0.48741892
   0.51395675  0.46019297  0.49415321
   0.53352608  0.46501291  0.44707096
   0.54384886  0.48678601  0.52690312
   0.57030391  0.56095442  0.54888897
   0.46539179  0.46765463  0.49608921
   0.53843405  0.53155945  0.52748508
   0.46000767  0.54188990  0.47833133
   0.57320877  0.46646144  0.54765846
Direct configuration=    28
   0.37692391  0.53390385  0.49439571
   0.37874688  0.48678349  0.45840256
   0.38112943  0.47891386  0.51716882
   0.44689498  0.44018906  0.50316242
   0.51845349  0.42557535  0.50518081
   0.56988276  0.46069191  0.44896662
   0.52646296  0.49809808  0.43312912
   0.52004070  0.43947796  0.42450955
   0.51320627  0.54446336  0.50803712
   0.58710684  0.54302238  0.57596457
   0.59586515  0.57225574  0.52495332
   0.55331065  0.59037891  0.56250217
   0.39169676  0.50082499  0.48973879
   0.44204599  0.50561036  0.48741976
   0.51395886  0.46019340  0.49415601
   0.53351526  0.46501035  0.44706911
   0.54385046  0.48679023  0.52690180
   0.57030146  0.56095599  0.54888935
   0.46539549  0.46765580  0.49609874
   0.53843197  0.53156082  0.52748510
   0.46001318  0.54188487  0.47832247
   0.57321535  0.46647001  0.54766099
Direct configuration=    29
   0.37693084  0.53390280  0.49439486
   0.37875852  0.48678795  0.45840002
   0.38112627  0.47891171  0.51716544
   0.44690024  0.44019431  0.50318644
   0.51845837  0.42557842  0.50518811
   0.56986761  0.46067747  0.44895185
   0.52645652  0.49809991  0.43313212
   0.52002226  0.43947373  0.42450990
   0.51321053  0.54446057  0.50802436
   0.58710995  0.54301106  0.57595265
   0.59586715  0.57226598  0.52496332
   0.55329817  0.59037691  0.56249856
   0.39170266  0.50082399  0.48974013
   0.44205369  0.50561307  0.48742045
   0.51396141  0.46019420  0.49415940
   0.53350198  0.46500734  0.44706656
   0.54385177  0.48679595  0.52689953
   0.57029866  0.56095738  0.54889015
   0.46540033  0.46765742  0.49611069
   0.53842819  0.53156353  0.52748373
   0.46001937  0.54187722  0.47831158
   0.57322453  0.46647956  0.54766486
Direct configuration=    30
   0.37693944  0.53390176  0.49439385
   0.37877299  0.48679337  0.45839650
   0.38112257  0.47890890  0.51716119
   0.44690656  0.44020043  0.50321666
   0.51846465  0.42558176  0.50519698
   0.56984910  0.46065977  0.44893330
   0.52644839  0.49810193  0.43313586
   0.51999888  0.43946918  0.42451029
   0.51321666  0.54445685  0.50800908
   0.58711299  0.54299740  0.57593876
   0.59586951  0.57227853  0.52497579
   0.55328262  0.59037447  0.56249490
   0.39171035  0.50082292  0.48974161
   0.44206316  0.50561632  0.48742128
   0.51396450  0.46019540  0.49416348
   0.53348576  0.46500378  0.44706306
   0.54385384  0.48680267  0.52689672
   0.57029522  0.56095854  0.54889146
   0.46540655  0.46765978  0.49612567
   0.53842265  0.53156795  0.52748057
   0.46002701  0.54186755  0.47829775
   0.57323590  0.46649090  0.54766966
Direct configuration=    31
   0.37695002  0.53390080  0.49439267
   0.37879089  0.48679990  0.45839167
   0.38111841  0.47890527  0.51715581
   0.44691422  0.44020771  0.50325448
   0.51847276  0.42558539  0.50520763
   0.56982670  0.46063824  0.44891006
   0.52643813  0.49810412  0.43314040
   0.51996924  0.43946461  0.42451068
   0.51322465  0.54445240  0.50799042
   0.58711557  0.54298099  0.57592306
   0.59587218  0.57229374  0.52499127
   0.55326351  0.59037133  0.56249155
   0.39172029  0.50082192  0.48974310
   0.44207370  0.50561796  0.48742285
   0.51396828  0.46019693  0.49416838
   0.53346622  0.46499960  0.44705837
   0.54385832  0.48680950  0.52689422
   0.57029062  0.56095961  0.54889327
   0.46541429  0.46766310  0.49614444
   0.53841597  0.53157405  0.52747552
   0.46003726  0.54185725  0.47827978
   0.57324839  0.46650535  0.54767453
Direct configuration=    32
   0.37696296  0.53390002  0.49439131
   0.37881291  0.48680774  0.45838517
   0.38111397  0.47890066  0.51714896
   0.44692358  0.44021655  0.50330140
   0.51848313  0.42558934  0.50522015
   0.56979997  0.46061235  0.44888117
   0.52642524  0.49810645  0.43314576
   0.51993184  0.43946043  0.42451105
   0.51323403  0.54444782  0.50796714
   0.58711707  0.54296142  0.57590595
   0.59587504  0.57231194  0.52501030
   0.55324048  0.59036712  0.56248906
   0.39173284  0.50082116  0.48974445
   0.44208464  0.50561579  0.48742567
   0.51397308  0.46019847  0.49417421
   0.53344301  0.46499469  0.44705231
   0.54386686  0.48681582  0.52689273
   0.57028406  0.56096098  0.54889547
   0.46542355  0.46766736  0.49616795
   0.53840968  0.53158114  0.52746883
   0.46005130  0.54184782  0.47825624
   0.57326074  0.46652426  0.54767850
Direct configuration=    33
   0.37697875  0.53389959  0.49438978
   0.37883989  0.48681712  0.45837657
   0.38110953  0.47889495  0.51714012
   0.44693519  0.44022755  0.50335933
   0.51849624  0.42559363  0.50523461
   0.56976849  0.46058149  0.44884543
   0.52640907  0.49810889  0.43315192
   0.51988468  0.43945724  0.42451133
   0.51324412  0.54444385  0.50793758
   0.58711653  0.54293837  0.57588802
   0.59587782  0.57233350  0.52503349
   0.55321319  0.59036130  0.56248830
   0.39174818  0.50082071  0.48974546
   0.44209617  0.50560925  0.48743002
   0.51397948  0.46019957  0.49418121
   0.53341575  0.46498888  0.44704478
   0.54387987  0.48682219  0.52689194
   0.57027467  0.56096323  0.54889792
   0.46543430  0.46767210  0.49619752
   0.53840604  0.53158788  0.52746088
   0.46006961  0.54183926  0.47822587
   0.57327286  0.46654825  0.54768133
Direct configuration=    34
   0.37699807  0.53389968  0.49438808
   0.37887284  0.48682838  0.45836541
   0.38110549  0.47888802  0.51712855
   0.44694969  0.44024123  0.50343076
   0.51851270  0.42559819  0.50525105
   0.56973192  0.46054484  0.44880133
   0.52638878  0.49811134  0.43315879
   0.51982508  0.43945581  0.42451145
   0.51325462  0.54444104  0.50790018
   0.58711254  0.54291183  0.57586992
   0.59588005  0.57235891  0.52506147
   0.55318129  0.59035328  0.56249053
   0.39176620  0.50082046  0.48974590
   0.44211025  0.50560125  0.48743529
   0.51398817  0.46019978  0.49418965
   0.53338393  0.46498192  0.44703577
   0.54389568  0.48683085  0.52688978
   0.57026170  0.56096699  0.54890070
   0.46544673  0.46767638  0.49623497
   0.53840696  0.53159306  0.52745121
   0.46009131  0.54182856  0.47818776
   0.57328691  0.46657639  0.54768439
Direct configuration=    35
   0.37702165  0.53390054  0.49438625
   0.37891282  0.48684190  0.45835118
   0.38110240  0.47887980  0.51711342
   0.44696739  0.44025762  0.50351861
   0.51853317  0.42560271  0.50526956
   0.56969012  0.46050161  0.44874735
   0.52636347  0.49811350  0.43316626
   0.51975009  0.43945706  0.42451146
   0.51326670  0.54443914  0.50785452
   0.58710323  0.54288251  0.57585213