   6   6   0   0
  0.4500000E+04  0.3000000E-08  0.3000000E-08  0.3000000E-08  0.0000000E+00
  1.000000000000000E-004
  CAR 
 unknown system                          
      2.02741513    -24.98037774  301     -6.79477888      1.00000000
    -24.980  0.0000E+00  0.0000E+00
    -24.890  0.0000E+00  0.0000E+00
    -24.800  0.0000E+00  0.0000E+00
    -24.710  0.0000E+00  0.0000E+00
    -24.620  0.0000E+00  0.0000E+00
    -24.530  0.0000E+00  0.0000E+00
    -24.440  0.0000E+00  0.0000E+00
    -24.350  0.0000E+00  0.0000E+00
    -24.260  0.0000E+00  0.0000E+00
    -24.170  0.0000E+00  0.0000E+00
    -24.080  0.2754E-15  0.2479E-16
    -23.990  0.3434E-13  0.3116E-14
    -23.900  0.2877E-11  0.2621E-12
    -23.810  0.1618E-09  0.1483E-10
    -23.720  0.6111E-08  0.5650E-09
    -23.630  0.1552E-06  0.1453E-07
    -23.540  0.2650E-05  0.2531E-06
    -23.450  0.3048E-04  0.2998E-05
    -23.360  0.2363E-03  0.2427E-04
    -23.270  0.1235E-02  0.1355E-03
    -23.180  0.4359E-02  0.5279E-03
    -23.090  0.1039E-01  0.1463E-02
    -23.000  0.1673E-01  0.2969E-02
    -22.910  0.1820E-01  0.4608E-02
    -22.820  0.1339E-01  0.5813E-02
    -22.730  0.6654E-02  0.6412E-02
    -22.640  0.2234E-02  0.6613E-02
    -22.550  0.5064E-03  0.6659E-02
    -22.460  0.7744E-04  0.6666E-02
    -22.370  0.7984E-05  0.6667E-02
    -22.280  0.5544E-06  0.6667E-02
    -22.190  0.2591E-07  0.6667E-02
    -22.100  0.8145E-09  0.6667E-02
    -22.010  0.1720E-10  0.6667E-02
    -21.919  0.2439E-12  0.6667E-02
    -21.829  0.2318E-14  0.6667E-02
    -21.739  0.1644E-16  0.6667E-02
    -21.649  0.0000E+00  0.6667E-02
    -21.559  0.0000E+00  0.6667E-02
    -21.469  0.0000E+00  0.6667E-02
    -21.379  0.0000E+00  0.6667E-02
    -21.289  0.0000E+00  0.6667E-02
    -21.199  0.0000E+00  0.6667E-02
    -21.109  0.0000E+00  0.6667E-02
    -21.019  0.0000E+00  0.6667E-02
    -20.929  0.0000E+00  0.6667E-02
    -20.839  0.0000E+00  0.6667E-02
    -20.749  0.0000E+00  0.6667E-02
    -20.659  0.0000E+00  0.6667E-02
    -20.569  0.0000E+00  0.6667E-02
    -20.479  0.0000E+00  0.6667E-02
    -20.389  0.0000E+00  0.6667E-02
    -20.299  0.0000E+00  0.6667E-02
    -20.209  0.0000E+00  0.6667E-02
    -20.119  0.0000E+00  0.6667E-02
    -20.029  0.0000E+00  0.6667E-02
    -19.939  0.7399E-16  0.6667E-02
    -19.849  0.1023E-13  0.6667E-02
    -19.759  0.9506E-12  0.6667E-02
    -19.669  0.5926E-10  0.6667E-02
    -19.579  0.2481E-08  0.6667E-02
    -19.489  0.6980E-07  0.6667E-02
    -19.399  0.1321E-05  0.6667E-02
    -19.309  0.1683E-04  0.6668E-02
    -19.219  0.1445E-03  0.6681E-02
    -19.129  0.8362E-03  0.6757E-02
    -19.039  0.3266E-02  0.7051E-02
    -18.949  0.8616E-02  0.7826E-02
    -18.859  0.1535E-01  0.9209E-02
    -18.769  0.1849E-01  0.1087E-01
    -18.679  0.1505E-01  0.1223E-01
    -18.589  0.8279E-02  0.1297E-01
    -18.499  0.3077E-02  0.1325E-01
    -18.408  0.7720E-03  0.1332E-01
    -18.318  0.1307E-03  0.1333E-01
    -18.228  0.1493E-04  0.1333E-01
    -18.138  0.1148E-05  0.1333E-01
    -18.048  0.5946E-07  0.1333E-01
    -17.958  0.2071E-08  0.1333E-01
    -17.868  0.4848E-10  0.1333E-01
    -17.778  0.7621E-12  0.1333E-01
    -17.688  0.8034E-14  0.1333E-01
    -17.598  0.5755E-16  0.1333E-01
    -17.508  0.0000E+00  0.1333E-01
    -17.418  0.0000E+00  0.1333E-01
    -17.328  0.0000E+00  0.1333E-01
    -17.238  0.0000E+00  0.1333E-01
    -17.148  0.0000E+00  0.1333E-01
    -17.058  0.0000E+00  0.1333E-01
    -16.968  0.0000E+00  0.1333E-01
    -16.878  0.0000E+00  0.1333E-01
    -16.788  0.0000E+00  0.1333E-01
    -16.698  0.0000E+00  0.1333E-01
    -16.608  0.0000E+00  0.1333E-01
    -16.518  0.0000E+00  0.1333E-01
    -16.428  0.0000E+00  0.1333E-01
    -16.338  0.0000E+00  0.1333E-01
    -16.248  0.0000E+00  0.1333E-01
    -16.158  0.0000E+00  0.1333E-01
    -16.068  0.0000E+00  0.1333E-01
    -15.978  0.0000E+00  0.1333E-01
    -15.888  0.0000E+00  0.1333E-01
    -15.798  0.0000E+00  0.1333E-01
    -15.708  0.0000E+00  0.1333E-01
    -15.618  0.0000E+00  0.1333E-01
    -15.528  0.0000E+00  0.1333E-01
    -15.438  0.0000E+00  0.1333E-01
    -15.348  0.0000E+00  0.1333E-01
    -15.258  0.0000E+00  0.1333E-01
    -15.168  0.0000E+00  0.1333E-01
    -15.078  0.0000E+00  0.1333E-01
    -14.987  0.0000E+00  0.1333E-01
    -14.897  0.0000E+00  0.1333E-01
    -14.807  0.0000E+00  0.1333E-01
    -14.717  0.0000E+00  0.1333E-01
    -14.627  0.0000E+00  0.1333E-01
    -14.537  0.0000E+00  0.1333E-01
    -14.447  0.0000E+00  0.1333E-01
    -14.357  0.0000E+00  0.1333E-01
    -14.267  0.0000E+00  0.1333E-01
    -14.177  0.0000E+00  0.1333E-01
    -14.087  0.0000E+00  0.1333E-01
    -13.997  0.0000E+00  0.1333E-01
    -13.907  0.0000E+00  0.1333E-01
    -13.817  0.0000E+00  0.1333E-01
    -13.727  0.0000E+00  0.1333E-01
    -13.637  0.0000E+00  0.1333E-01
    -13.547  0.0000E+00  0.1333E-01
    -13.457  0.1644E-16  0.1333E-01
    -13.367  0.2302E-14  0.1333E-01
    -13.277  0.2424E-12  0.1333E-01
    -13.187  0.1711E-10  0.1333E-01
    -13.097  0.8104E-09  0.1333E-01
    -13.007  0.2580E-07  0.1333E-01
    -12.917  0.5523E-06  0.1333E-01
    -12.827  0.7957E-05  0.1333E-01
    -12.737  0.7722E-04  0.1334E-01
    -12.647  0.5052E-03  0.1339E-01
    -12.557  0.2230E-02  0.1359E-01
    -12.467  0.6646E-02  0.1419E-01
    -12.377  0.1338E-01  0.1539E-01
    -12.287  0.1820E-01  0.1703E-01
    -12.197  0.1673E-01  0.1854E-01
    -12.107  0.1040E-01  0.1947E-01
    -12.017  0.4378E-02  0.1987E-01
    -11.927  0.1349E-02  0.1999E-01
    -11.837  0.9159E-03  0.2007E-01
    -11.747  0.2827E-02  0.2032E-01
    -11.657  0.7809E-02  0.2103E-01
    -11.567  0.1492E-01  0.2237E-01
    -11.476  0.2019E-01  0.2419E-01
    -11.386  0.2139E-01  0.2611E-01
    -11.296  0.2124E-01  0.2802E-01
    -11.206  0.2128E-01  0.2994E-01
    -11.116  0.1847E-01  0.3160E-01
    -11.026  0.1189E-01  0.3267E-01
    -10.936  0.5321E-02  0.3315E-01
    -10.846  0.1620E-02  0.3330E-01
    -10.756  0.3338E-03  0.3333E-01
    -10.666  0.4641E-04  0.3333E-01
    -10.576  0.4349E-05  0.3333E-01
    -10.486  0.2745E-06  0.3333E-01
    -10.396  0.1166E-07  0.3333E-01
    -10.306  0.3330E-09  0.3333E-01
    -10.216  0.6388E-11  0.3333E-01
    -10.126  0.8244E-13  0.3333E-01
    -10.036  0.2421E-13  0.3333E-01
     -9.946  0.2034E-11  0.3333E-01
     -9.856  0.1182E-09  0.3333E-01
     -9.766  0.4610E-08  0.3333E-01
     -9.676  0.1209E-06  0.3333E-01
     -9.586  0.2133E-05  0.3333E-01
     -9.496  0.2534E-04  0.3334E-01
     -9.406  0.2029E-03  0.3335E-01
     -9.316  0.1095E-02  0.3345E-01
     -9.226  0.3991E-02  0.3381E-01
     -9.136  0.9820E-02  0.3470E-01
     -9.046  0.1633E-01  0.3617E-01
     -8.956  0.1835E-01  0.3782E-01
     -8.866  0.1393E-01  0.3907E-01
     -8.776  0.7154E-02  0.3972E-01
     -8.686  0.2527E-02  0.3994E-01
     -8.596  0.9251E-03  0.4003E-01
     -8.506  0.1753E-02  0.4018E-01
     -8.416  0.5409E-02  0.4067E-01
     -8.326  0.1186E-01  0.4174E-01
     -8.236  0.1760E-01  0.4332E-01
     -8.146  0.1777E-01  0.4492E-01
     -8.055  0.1276E-01  0.4607E-01
     -7.965  0.8660E-02  0.4685E-01
     -7.875  0.1017E-01  0.4777E-01
     -7.785  0.1559E-01  0.4917E-01
     -7.695  0.1854E-01  0.5084E-01
     -7.605  0.1518E-01  0.5221E-01
     -7.515  0.8414E-02  0.5296E-01
     -7.425  0.3152E-02  0.5325E-01
     -7.335  0.7973E-03  0.5332E-01
     -7.245  0.1361E-03  0.5333E-01
     -7.155  0.1567E-04  0.5333E-01
     -7.065  0.1215E-05  0.5333E-01
     -6.975  0.6343E-07  0.5333E-01
     -6.885  0.2227E-08  0.5333E-01
     -6.795  0.5257E-10  0.5333E-01
     -6.705  0.8331E-12  0.5333E-01
     -6.615  0.8861E-14  0.5333E-01
     -6.525  0.6577E-16  0.5333E-01
     -6.435  0.0000E+00  0.5333E-01
     -6.345  0.0000E+00  0.5333E-01
     -6.255  0.0000E+00  0.5333E-01
     -6.165  0.0000E+00  0.5333E-01
     -6.075  0.0000E+00  0.5333E-01
     -5.985  0.0000E+00  0.5333E-01
     -5.895  0.0000E+00  0.5333E-01
     -5.805  0.0000E+00  0.5333E-01
     -5.715  0.0000E+00  0.5333E-01
     -5.625  0.0000E+00  0.5333E-01
     -5.535  0.0000E+00  0.5333E-01
     -5.445  0.0000E+00  0.5333E-01
     -5.355  0.0000E+00  0.5333E-01
     -5.265  0.0000E+00  0.5333E-01
     -5.175  0.0000E+00  0.5333E-01
     -5.085  0.0000E+00  0.5333E-01
     -4.995  0.0000E+00  0.5333E-01
     -4.905  0.0000E+00  0.5333E-01
     -4.815  0.0000E+00  0.5333E-01
     -4.725  0.0000E+00  0.5333E-01
     -4.635  0.0000E+00  0.5333E-01
     -4.544  0.0000E+00  0.5333E-01
     -4.454  0.0000E+00  0.5333E-01
     -4.364  0.0000E+00  0.5333E-01
     -4.274  0.0000E+00  0.5333E-01
     -4.184  0.0000E+00  0.5333E-01
     -4.094  0.0000E+00  0.5333E-01
     -4.004  0.0000E+00  0.5333E-01
     -3.914  0.0000E+00  0.5333E-01
     -3.824  0.4111E-17  0.5333E-01
     -3.734  0.9414E-15  0.5333E-01
     -3.644  0.1065E-12  0.5333E-01
     -3.554  0.8082E-11  0.5333E-01
     -3.464  0.4119E-09  0.5333E-01
     -3.374  0.1410E-07  0.5333E-01
     -3.284  0.3246E-06  0.5333E-01
     -3.194  0.5028E-05  0.5333E-01
     -3.104  0.5246E-04  0.5334E-01
     -3.014  0.3689E-03  0.5337E-01
     -2.924  0.1750E-02  0.5353E-01
     -2.834  0.5604E-02  0.5403E-01
     -2.744  0.1212E-01  0.5512E-01
     -2.654  0.1771E-01  0.5672E-01
     -2.564  0.1750E-01  0.5830E-01
     -2.474  0.1168E-01  0.5935E-01
     -2.384  0.5270E-02  0.5982E-01
     -2.294  0.1606E-02  0.5997E-01
     -2.204  0.3303E-03  0.6000E-01
     -2.114  0.4582E-04  0.6000E-01
     -2.024  0.4285E-05  0.6000E-01
     -1.934  0.2698E-06  0.6000E-01
     -1.844  0.1143E-07  0.6000E-01
     -1.754  0.3258E-09  0.6000E-01
     -1.664  0.6235E-11  0.6000E-01
     -1.574  0.8012E-13  0.6000E-01
     -1.484  0.3445E-14  0.6000E-01
     -1.394  0.2987E-12  0.6000E-01
     -1.304  0.2178E-10  0.6000E-01
     -1.214  0.1068E-08  0.6000E-01
     -1.123  0.3524E-07  0.6000E-01
     -1.033  0.7836E-06  0.6000E-01
     -0.943  0.1175E-04  0.6000E-01
     -0.853  0.1189E-03  0.6001E-01
     -0.763  0.8127E-03  0.6008E-01
     -0.673  0.3756E-02  0.6042E-01
     -0.583  0.1174E-01  0.6148E-01
     -0.493  0.2486E-01  0.6372E-01
     -0.403  0.3570E-01  0.6693E-01
     -0.313  0.3510E-01  0.7009E-01
     -0.223  0.2502E-01  0.7234E-01
     -0.133  0.1688E-01  0.7386E-01
     -0.043  0.1656E-01  0.7535E-01
      0.047  0.1886E-01  0.7705E-01
      0.137  0.1673E-01  0.7856E-01
      0.227  0.1027E-01  0.7948E-01
      0.317  0.4278E-02  0.7987E-01
      0.407  0.1204E-02  0.7998E-01
      0.497  0.2287E-03  0.8000E-01
      0.587  0.2930E-04  0.8000E-01
      0.677  0.2530E-05  0.8000E-01
      0.767  0.1471E-06  0.8000E-01
      0.857  0.5754E-08  0.8000E-01
      0.947  0.1513E-09  0.8000E-01
      1.037  0.2672E-11  0.8000E-01
      1.127  0.3168E-13  0.8000E-01
      1.217  0.2528E-15  0.8000E-01
      1.307  0.0000E+00  0.8000E-01
      1.397  0.0000E+00  0.8000E-01
      1.487  0.0000E+00  0.8000E-01
      1.577  0.0000E+00  0.8000E-01
      1.667  0.0000E+00  0.8000E-01
      1.757  0.0000E+00  0.8000E-01
      1.847  0.0000E+00  0.8000E-01
      1.937  0.0000E+00  0.8000E-01
      2.027  0.0000E+00  0.8000E-01
