    6    6  300    1
  0.4500000E+04  0.3000000E-08  0.3000000E-08  0.3000000E-08  0.0000000E+00
  1.000000000000000E-004
  CAR 
 unknown system                          
     16      4     12
 
  0.2500000E+00  0.2500000E+00  0.2500000E+00  0.2500000E+00
    1      -22.980377   1.000000
    2      -18.815891   1.000000
    3      -12.306024   1.000000
    4      -11.511922   1.000000
    5      -11.208696   1.000000
    6       -9.018995   1.000000
    7       -8.234934   1.000000
    8       -7.740848   1.000000
    9       -2.656759   0.000000
   10       -0.420893   0.000000
   11       -0.399379   0.000000
   12        0.027415   0.000000
 
 -0.2500000E+00  0.2500000E+00  0.2500000E+00  0.2500000E+00
    1      -22.980378   1.000000
    2      -18.815889   1.000000
    3      -12.306021   1.000000
    4      -11.511929   1.000000
    5      -11.208703   1.000000
    6       -9.018997   1.000000
    7       -8.234929   1.000000
    8       -7.740852   1.000000
    9       -2.656765   0.000000
   10       -0.420895   0.000000
   11       -0.399380   0.000000
   12        0.024309   0.000000
 
  0.2500000E+00 -0.2500000E+00  0.2500000E+00  0.2500000E+00
    1      -22.980378   1.000000
    2      -18.815889   1.000000
    3      -12.306022   1.000000
    4      -11.511927   1.000000
    5      -11.208698   1.000000
    6       -9.018994   1.000000
    7       -8.234945   1.000000
    8       -7.740853   1.000000
    9       -2.656749   0.000000
   10       -0.420903   0.000000
   11       -0.399377   0.000000
   12        0.025832   0.000000
 
 -0.2500000E+00 -0.2500000E+00  0.2500000E+00  0.2500000E+00
    1      -22.980378   1.000000
    2      -18.815890   1.000000
    3      -12.306022   1.000000
    4      -11.511927   1.000000
    5      -11.208698   1.000000
    6       -9.018994   1.000000
    7       -8.234951   1.000000
    8       -7.740851   1.000000
    9       -2.656749   0.000000
   10       -0.420901   0.000000
   11       -0.399377   0.000000
   12        0.025703   0.000000
