 vasp.5.4.1 24Jun15 (build Jan 13 2020 12:58:22) complex                        
  
 executed on           IFC91_ompi date 2020.02.05  18:18:08
 running on   15 total cores
 each image running on    1 cores
 distrk:  each k-point on    1 cores,    1 groups
 distr:  one band on NCORES_PER_BAND=   1 cores,    1 groups


--------------------------------------------------------------------------------------------------------


 INCAR:
 POTCAR:    PAW_PBE H 15Jun2001                   
 POTCAR:    PAW_PBE C 08Apr2002                   
 POTCAR:    PAW_PBE N 08Apr2002                   
 POTCAR:    PAW_PBE H 15Jun2001                   
   VRHFIN =H: ultrasoft test                                                    
   LEXCH  = PE                                                                  
   EATOM  =    12.4884 eV,    0.9179 Ry                                         
                                                                                
   TITEL  = PAW_PBE H 15Jun2001                                                 
   LULTRA =        F    use ultrasoft PP ?                                      
   IUNSCR =        0    unscreen: 0-lin 1-nonlin 2-no                           
   RPACOR =    0.000    partial core radius                                     
   POMASS =    1.000; ZVAL   =    1.000    mass and valenz                      
   RCORE  =    1.100    outmost cutoff radius                                   
   RWIGS  =    0.700; RWIGS  =    0.370    wigner-seitz radius (au A)           
   ENMAX  =  250.000; ENMIN  =  200.000 eV                                      
   RCLOC  =    0.701    cutoff for local pot                                    
   LCOR   =        T    correct aug charges                                     
   LPAW   =        T    paw PP                                                  
   EAUG   =  400.000                                                            
   RMAX   =    1.123    core radius for proj-oper                               
   RAUG   =    1.200    factor for augmentation sphere                          
   RDEP   =    1.112    radius for radial grids                                 
   RDEPT  =    0.926    core radius for aug-charge                              
                                                                                
   Atomic configuration                                                         
    2 entries                                                                   
     n  l   j            E        occ.                                          
     1  0  0.50        -6.4927   1.0000                                         
     2  1  0.50        -3.4015   0.0000                                         
   Description                                                                  
     l       E           TYP  RCUT    TYP  RCUT                                 
     0     -6.4927494     23  1.100                                             
     0      6.8029130     23  1.100                                             
     1     -4.0817478     23  1.100                                             
  local pseudopotential read in
  atomic valenz-charges read in
  non local Contribution for L=           0  read in
    real space projection operators read in
  non local Contribution for L=           0  read in
    real space projection operators read in
  non local Contribution for L=           1  read in
    real space projection operators read in
    PAW grid and wavefunctions read in
 
   number of l-projection  operators is LMAX  =           3
   number of lm-projection operators is LMMAX =           5
 
 POTCAR:    PAW_PBE C 08Apr2002                   
   VRHFIN =C: s2p2                                                              
   LEXCH  = PE                                                                  
   EATOM  =   147.1560 eV,   10.8157 Ry                                         
                                                                                
   TITEL  = PAW_PBE C 08Apr2002                                                 
   LULTRA =        F    use ultrasoft PP ?                                      
   IUNSCR =        1    unscreen: 0-lin 1-nonlin 2-no                           
   RPACOR =    1.200    partial core radius                                     
   POMASS =   12.011; ZVAL   =    4.000    mass and valenz                      
   RCORE  =    1.500    outmost cutoff radius                                   
   RWIGS  =    1.630; RWIGS  =    0.863    wigner-seitz radius (au A)           
   ENMAX  =  400.000; ENMIN  =  300.000 eV                                      
   ICORE  =        2    local potential                                         
   LCOR   =        T    correct aug charges                                     
   LPAW   =        T    paw PP                                                  
   EAUG   =  644.873                                                            
   DEXC   =    0.000                                                            
   RMAX   =    1.529    core radius for proj-oper                               
   RAUG   =    1.300    factor for augmentation sphere                          
   RDEP   =    1.501    radius for radial grids                                 
   RDEPT  =    1.300    core radius for aug-charge                              
                                                                                
   Atomic configuration                                                         
    4 entries                                                                   
     n  l   j            E        occ.                                          
     1  0  0.50      -273.3789   2.0000                                         
     2  0  0.50       -13.7508   2.0000                                         
     2  1  0.50        -5.2854   2.0000                                         
     3  2  1.50        -5.4423   0.0000                                         
   Description                                                                  
     l       E           TYP  RCUT    TYP  RCUT                                 
     0    -13.7508458     23  1.200                                             
     0     -8.2022199     23  1.200                                             
     1     -5.2854383     23  1.500                                             
     1     34.0145650     23  1.500                                             
     2     -5.4423304      7  1.500                                             
  local pseudopotential read in
  partial core-charges read in
  partial kinetic energy density read in
  atomic valenz-charges read in
  non local Contribution for L=           0  read in
    real space projection operators read in
  non local Contribution for L=           0  read in
    real space projection operators read in
  non local Contribution for L=           1  read in
    real space projection operators read in
  non local Contribution for L=           1  read in
    real space projection operators read in
    PAW grid and wavefunctions read in
 
   number of l-projection  operators is LMAX  =           4
   number of lm-projection operators is LMMAX =           8
 
 POTCAR:    PAW_PBE N 08Apr2002                   
   VRHFIN =N: s2p3                                                              
   LEXCH  = PE                                                                  
   EATOM  =   264.5486 eV,   19.4438 Ry                                         
                                                                                
   TITEL  = PAW_PBE N 08Apr2002                                                 
   LULTRA =        F    use ultrasoft PP ?                                      
   IUNSCR =        1    unscreen: 0-lin 1-nonlin 2-no                           
   RPACOR =    1.200    partial core radius                                     
   POMASS =   14.001; ZVAL   =    5.000    mass and valenz                      
   RCORE  =    1.500    outmost cutoff radius                                   
   RWIGS  =    1.400; RWIGS  =    0.741    wigner-seitz radius (au A)           
   ENMAX  =  400.000; ENMIN  =  300.000 eV                                      
   ICORE  =        2    local potential                                         
   LCOR   =        T    correct aug charges                                     
   LPAW   =        T    paw PP                                                  
   EAUG   =  627.112                                                            
   DEXC   =    0.000                                                            
   RMAX   =    1.529    core radius for proj-oper                               
   RAUG   =    1.300    factor for augmentation sphere                          
   RDEP   =    1.514    radius for radial grids                                 
   RDEPT  =    1.338    core radius for aug-charge                              
                                                                                
   Atomic configuration                                                         
    4 entries                                                                   
     n  l   j            E        occ.                                          
     1  0  0.50      -384.7179   2.0000                                         
     2  0  0.50       -18.5828   2.0000                                         
     2  1  0.50        -7.0898   3.0000                                         
     3  2  1.50        -6.8029   0.0000                                         
   Description                                                                  
     l       E           TYP  RCUT    TYP  RCUT                                 
     0    -18.5828119     23  1.200                                             
     0    -13.5018863     23  1.200                                             
     1     -7.0897853     23  1.500                                             
     1      9.5240782     23  1.500                                             
     2     -6.8029130      7  1.500                                             
  local pseudopotential read in
  partial core-charges read in
  partial kinetic energy density read in
  atomic valenz-charges read in
  non local Contribution for L=           0  read in
    real space projection operators read in
  non local Contribution for L=           0  read in
    real space projection operators read in
  non local Contribution for L=           1  read in
    real space projection operators read in
  non local Contribution for L=           1  read in
    real space projection operators read in
    PAW grid and wavefunctions read in
 
   number of l-projection  operators is LMAX  =           4
   number of lm-projection operators is LMMAX =           8
 

 ----------------------------------------------------------------------------- 
|                                                                             |
|  ADVICE TO THIS USER RUNNING 'VASP/VAMP'   (HEAR YOUR MASTER'S VOICE ...):  |
|                                                                             |
|      You have a (more or less) 'small supercell' and for smaller cells      |
|      it is recommended  to use the reciprocal-space projection scheme!      |
|      The real space optimization is not  efficient for small cells and it   |
|      is also less accurate ...                                              |
|      Therefore set LREAL=.FALSE. in the  INCAR file                         |
|                                                                             |
 ----------------------------------------------------------------------------- 

 Optimization of the real space projectors (new method)

 maximal supplied QI-value         = 34.20
 optimisation between [QCUT,QGAM] = [  9.92, 20.18] = [ 27.55,114.04] Ry 
 Optimized for a Real-space Cutoff    1.26 Angstroem

   l    n(q)    QCUT    max X(q) W(low)/X(q) W(high)/X(q)  e(spline) 
   0      8     9.919    19.460    0.50E-03    0.23E-03    0.29E-06
   0      8     9.919    12.209    0.48E-03    0.23E-03    0.28E-06
   1      7     9.919     4.655    0.17E-03    0.75E-03    0.30E-06
 Optimization of the real space projectors (new method)

 maximal supplied QI-value         = 25.13
 optimisation between [QCUT,QGAM] = [ 10.05, 20.36] = [ 28.30,116.06] Ry 
 Optimized for a Real-space Cutoff    1.30 Angstroem

   l    n(q)    QCUT    max X(q) W(low)/X(q) W(high)/X(q)  e(spline) 
   0      8    10.053   115.676    0.49E-03    0.72E-03    0.18E-06
   0      8    10.053    87.132    0.49E-03    0.71E-03    0.18E-06
   1      7    10.053     4.429    0.32E-03    0.31E-03    0.18E-06
   1      7    10.053     2.733    0.23E-03    0.19E-03    0.20E-06
 Optimization of the real space projectors (new method)

 maximal supplied QI-value         = 25.13
 optimisation between [QCUT,QGAM] = [ 10.05, 20.36] = [ 28.30,116.06] Ry 
 Optimized for a Real-space Cutoff    1.65 Angstroem

   l    n(q)    QCUT    max X(q) W(low)/X(q) W(high)/X(q)  e(spline) 
   0     10    10.053    79.467    0.76E-04    0.72E-04    0.56E-06
   0     10    10.053    66.151    0.76E-04    0.72E-04    0.55E-06
   1     10    10.053     8.350    0.25E-03    0.92E-03    0.41E-05
   1     10    10.053     5.531    0.27E-03    0.10E-02    0.45E-05
  PAW_PBE H 15Jun2001                   :
 energy of atom  1       EATOM=  -12.4884
 kinetic energy error for atom=    0.0098 (will be added to EATOM!!)
  PAW_PBE C 08Apr2002                   :
 energy of atom  2       EATOM= -147.1560
 kinetic energy error for atom=    0.0288 (will be added to EATOM!!)
  PAW_PBE N 08Apr2002                   :
 energy of atom  3       EATOM= -264.5486
 kinetic energy error for atom=    0.0736 (will be added to EATOM!!)
 
 
 POSCAR: H3 C2 N1                                
  positions in direct lattice
  velocities in cartesian coordinates
 exchange correlation table for  LEXCH =        8
   RHO(1)=    0.500       N(1)  =     2000
   RHO(2)=  100.500       N(2)  =     4000

 VTST: version 3.2, (02/03/18)

 CHAIN: initializing optimizer
 
 OPT: Using FIRE optimizer
 OPT: FIRE, Init
 OPT: FIRE, MAXMOVE       0.20000
 OPT: FIRE, TIMESTEP      0.10000
 OPT: FIRE, FTIMEMAX      1.00000
 OPT: FIRE, FTIMEINC      1.10000
 OPT: FIRE, FTIMEDEC      0.50000
 OPT: FIRE, FALPHADEC     0.99000
 OPT: FIRE, FALPHA        0.10000
 OPT: FIRE, FNMIN         5
 
 CHAIN: Read ICHAIN            0
 CHAIN: Running the NEB
 NEB:          SPRING     -5.000000
 NEB:          LCLIMB      T
 NEB:     LTANGENTOLD      F
 NEB:           LDNEB      F
 NEB:        LDNEBORG      F
 NEB:        LNEBCELL      F
 NEB:          EFIRST      0.000000
 NEB:           ELAST      0.000000
 
 POSCAR: H3 C2 N1                                
  positions in direct lattice
  No initial velocities read in
 
 POSCAR: H3 C2 N1                                
  positions in direct lattice
  No initial velocities read in
 


--------------------------------------------------------------------------------------------------------


 ion  position               nearest neighbor table
   1  0.472  0.464  0.505-   4 1.09
   2  0.472  0.510  0.465-   4 1.09
   3  0.477  0.521  0.523-   4 1.11
   4  0.485  0.497  0.496-   1 1.09   2 1.09   3 1.11   5 1.48
   5  0.534  0.495  0.494-   6 1.17   4 1.48
   6  0.560  0.514  0.516-   5 1.17
 
  LATTYP: Found a simple cubic cell.
 ALAT       =    30.0000000000
  
  Lattice vectors:
  
 A1 = (  30.0000000000,   0.0000000000,   0.0000000000)
 A2 = (   0.0000000000,  30.0000000000,   0.0000000000)
 A3 = (   0.0000000000,   0.0000000000,  30.0000000000)


Analysis of symmetry for initial positions (statically):
=====================================================================
 Subroutine PRICEL returns:
 Original cell was already a primitive cell.
 

 Routine SETGRP: Setting up the symmetry group for a 
 simple cubic supercell.


 Subroutine GETGRP returns: Found  1 space group operations
 (whereof  1 operations were pure point group operations)
 out of a pool of 48 trial point group operations.


The static configuration has the point symmetry C_1 .


Analysis of symmetry for dynamics (positions and initial velocities):
=====================================================================
 Subroutine PRICEL returns:
 Original cell was already a primitive cell.
 

 Routine SETGRP: Setting up the symmetry group for a 
 simple cubic supercell.


 Subroutine GETGRP returns: Found  1 space group operations
 (whereof  1 operations were pure point group operations)
 out of a pool of 48 trial point group operations.


The dynamic configuration has the point symmetry C_1 .
 
 
 KPOINTS: Mo2C                                    

Automatic generation of k-mesh.
Space group operators:
 irot       det(A)        alpha          n_x          n_y          n_z        tau_x        tau_y        tau_z
    1     1.000000     0.000000     1.000000     0.000000     0.000000     0.000000     0.000000     0.000000
 
 Subroutine IBZKPT returns following result:
 ===========================================
 
 Found      4 irreducible k-points:
 
 Following reciprocal coordinates:
            Coordinates               Weight
  0.250000  0.250000  0.250000      2.000000
 -0.250000  0.250000  0.250000      2.000000
  0.250000 -0.250000  0.250000      2.000000
 -0.250000 -0.250000  0.250000      2.000000
 
 Following cartesian coordinates:
            Coordinates               Weight
  0.008333  0.008333  0.008333      2.000000
 -0.008333  0.008333  0.008333      2.000000
  0.008333 -0.008333  0.008333      2.000000
 -0.008333 -0.008333  0.008333      2.000000
 


--------------------------------------------------------------------------------------------------------




 Dimension of arrays:
   k-points           NKPTS =      4   k-points in BZ     NKDIM =      4   number of bands    NBANDS=     12
   number of dos      NEDOS =    301   number of ions     NIONS =      6
   non local maximal  LDIM  =      4   non local SUM 2l+1 LMDIM =      8
   total plane-waves  NPLWV = ******
   max r-space proj   IRMAX =   2395   max aug-charges    IRDMAX=   1738
   dimension x,y,z NGX =   150 NGY =  150 NGZ =  150
   dimension x,y,z NGXF=   300 NGYF=  300 NGZF=  300
   support grid    NGXF=   300 NGYF=  300 NGZF=  300
   ions per type =               3   2   1
 NGX,Y,Z   is equivalent  to a cutoff of   8.31,  8.31,  8.31 a.u.
 NGXF,Y,Z  is equivalent  to a cutoff of  16.62, 16.62, 16.62 a.u.


 I would recommend the setting:
   dimension x,y,z NGX =   147 NGY =  147 NGZ =  147
 SYSTEM =  unknown system                          
 POSCAR =  H3 C2 N1                                

 Startparameter for this run:
   NWRITE =      2    write-flag & timer
   PREC   = normal    normal or accurate (medium, high low for compatibility)
   ISTART =      0    job   : 0-new  1-cont  2-samecut
   ICHARG =      2    charge: 1-file 2-atom 10-const
   ISPIN  =      1    spin polarized calculation?
   LNONCOLLINEAR =      F non collinear calculations
   LSORBIT =      F    spin-orbit coupling
   INIWAV =      1    electr: 0-lowe 1-rand  2-diag
   LASPH  =      F    aspherical Exc in radial PAW
   METAGGA=      F    non-selfconsistent MetaGGA calc.

 Electronic Relaxation 1
   ENCUT  =  400.0 eV  29.40 Ry    5.42 a.u.  48.92 48.92 48.92*2*pi/ulx,y,z
   ENINI  =  400.0     initial cutoff
   ENAUG  =  644.9 eV  augmentation charge cutoff
   NELM   =    500;   NELMIN=  6; NELMDL= -5     # of ELM steps 
   EDIFF  = 0.1E-03   stopping-criterion for ELM
   LREAL  =      T    real-space projection
   NLSPLINE    = F    spline interpolate recip. space projectors
   LCOMPAT=      F    compatible to vasp.4.4
   GGA_COMPAT  = T    GGA compatible to vasp.4.4-vasp.4.6
   LMAXPAW     = -100 max onsite density
   LMAXMIX     =    2 max onsite mixed and CHGCAR
   VOSKOWN=      0    Vosko Wilk Nusair interpolation
   ROPT   =   -0.00050  -0.00050  -0.00050
 Ionic relaxation
   EDIFFG = -.1E+00   stopping-criterion for IOM
   NSW    =    300    number of steps for IOM
   NBLOCK =      1;   KBLOCK =    300    inner block; outer block 
   IBRION =      3    ionic relax: 0-MD 1-quasi-New 2-CG
   NFREE  =      0    steps in history (QN), initial steepest desc. (CG)
   ISIF   =      2    stress and relaxation
   IWAVPR =     11    prediction:  0-non 1-charg 2-wave 3-comb
   ISYM   =      2    0-nonsym 1-usesym 2-fastsym
   LCORR  =      T    Harris-Foulkes like correction to forces

   POTIM  = 0.0000    time-step for ionic-motion
   TEIN   =    0.0    initial temperature
   TEBEG  =    0.0;   TEEND  =   0.0 temperature during run
   SMASS  =   2.00    Nose mass-parameter (am)
   estimated Nose-frequenzy (Omega)   =  0.12E+10 period in steps =  0.00 mass=   0.137E-25a.u.
   SCALEE = 1.0000    scale energy and forces
   NPACO  =    256;   APACO  = 16.0  distance and # of slots for P.C.
   PSTRESS=    0.0 pullay stress

  Mass of Ions in am
   POMASS =   1.00 12.01 14.00
  Ionic Valenz
   ZVAL   =   1.00  4.00  5.00
  Atomic Wigner-Seitz radii
   RWIGS  =  -1.00 -1.00 -1.00
  virtual crystal weights 
   VCA    =   1.00  1.00  1.00
   NELECT =      16.0000    total number of electrons
   NUPDOWN=      -1.0000    fix difference up-down

 DOS related values:
   EMIN   =  10.00;   EMAX   =-10.00  energy-range for DOS
   EFERMI =   0.00
   ISMEAR =     0;   SIGMA  =   0.20  broadening in eV -4-tet -1-fermi 0-gaus

 Electronic relaxation 2 (details)
   IALGO  =     38    algorithm
   LDIAG  =      T    sub-space diagonalisation (order eigenvalues)
   LSUBROT=      F    optimize rotation matrix (better conditioning)
   TURBO    =      0    0=normal 1=particle mesh
   IRESTART =      0    0=no restart 2=restart with 2 vectors
   NREBOOT  =      0    no. of reboots
   NMIN     =      0    reboot dimension
   EREF     =   0.00    reference energy to select bands
   IMIX   =      4    mixing-type and parameters
     AMIX     =   0.40;   BMIX     =  1.00
     AMIX_MAG =   1.60;   BMIX_MAG =  1.00
     AMIN     =   0.10
     WC   =   100.;   INIMIX=   1;  MIXPRE=   1;  MAXMIX= -45

 Intra band minimization:
   WEIMIN = 0.0010     energy-eigenvalue tresh-hold
   EBREAK =  0.21E-05  absolut break condition
   DEPER  =   0.30     relativ break condition  

   TIME   =   0.40     timestep for ELM

  volume/ion in A,a.u.               =    4500.00     30367.50
  Fermi-wavevector in a.u.,A,eV,Ry     =   0.137508  0.259852  0.257264  0.018908
  Thomas-Fermi vector in A             =   0.790710
 
 Write flags
   LWAVE  =      F    write WAVECAR
   LCHARG =      F    write CHGCAR
   LVTOT  =      F    write LOCPOT, total local potential
   LVHAR  =      F    write LOCPOT, Hartree potential only
   LELF   =      F    write electronic localiz. function (ELF)
   LORBIT =      0    0 simple, 1 ext, 2 COOP (PROOUT)


 Dipole corrections
   LMONO  =      F    monopole corrections only (constant potential shift)
   LDIPOL =      F    correct potential (dipole corrections)
   IDIPOL =      0    1-x, 2-y, 3-z, 4-all directions 
   EPSILON=  1.0000000 bulk dielectric constant

 Exchange correlation treatment:
   GGA     =    PE    GGA type
   LEXCH   =     8    internal setting for exchange type
   VOSKOWN=      0    Vosko Wilk Nusair interpolation
   LHFCALC =     F    Hartree Fock is set to
   LHFONE  =     F    Hartree Fock one center treatment
   AEXX    =    0.0000 exact exchange contribution

 Linear response parameters
   LEPSILON=     F    determine dielectric tensor
   LRPA    =     F    only Hartree local field effects (RPA)
   LNABLA  =     F    use nabla operator in PAW spheres
   LVEL    =     F    velocity operator in full k-point grid
   LINTERFAST=   F  fast interpolation
   KINTER  =     0    interpolate to denser k-point grid
   CSHIFT  =0.1000    complex shift for real part using Kramers Kronig
   OMEGAMAX=  -1.0    maximum frequency
   DEG_THRESHOLD= 0.2000000E-02 threshold for treating states as degnerate
   RTIME   =    0.100 relaxation time in fs

 Orbital magnetization related:
   ORBITALMAG=     F  switch on orbital magnetization
   LCHIMAG   =     F  perturbation theory with respect to B field
   DQ        =  0.001000  dq finite difference perturbation B field



--------------------------------------------------------------------------------------------------------


 quickmin algorithm: (dynamic with friction)
 charge density and potential will be updated during run
 non-spin polarized calculation
 Variant of blocked Davidson
 Davidson routine will perform the subspace rotation
 perform sub-space diagonalisation
    after iterative eigenvector-optimisation
 modified Broyden-mixing scheme, WC =      100.0
 initial mixing is a Kerker type mixing with AMIX =  0.4000 and BMIX =      1.0000
 Hartree-type preconditioning will be used
 using additional bands            4
 real space projection scheme for non local part
 use partial core corrections
 calculate Harris-corrections to forces 
   (improved forces if not selfconsistent)
 use gradient corrections 
 use of overlap-Matrix (Vanderbilt PP)
 Gauss-broadening in eV      SIGMA  =   0.20


--------------------------------------------------------------------------------------------------------


  energy-cutoff  :      400.00
  volume of cell :    27000.00
      direct lattice vectors                 reciprocal lattice vectors
    30.000000000  0.000000000  0.000000000     0.033333333  0.000000000  0.000000000
     0.000000000 30.000000000  0.000000000     0.000000000  0.033333333  0.000000000
     0.000000000  0.000000000 30.000000000     0.000000000  0.000000000  0.033333333

  length of vectors
    30.000000000 30.000000000 30.000000000     0.033333333  0.033333333  0.033333333


 
 k-points in units of 2pi/SCALE and weight: Mo2C                                    
   0.00833333  0.00833333  0.00833333       0.250
  -0.00833333  0.00833333  0.00833333       0.250
   0.00833333 -0.00833333  0.00833333       0.250
  -0.00833333 -0.00833333  0.00833333       0.250
 
 k-points in reciprocal lattice and weights: Mo2C                                    
   0.25000000  0.25000000  0.25000000       0.250
  -0.25000000  0.25000000  0.25000000       0.250
   0.25000000 -0.25000000  0.25000000       0.250
  -0.25000000 -0.25000000  0.25000000       0.250
 
 position of ions in fractional coordinates (direct lattice) 
   0.47219712  0.46389098  0.50547714
   0.47199624  0.50959861  0.46498310
   0.47729671  0.52055773  0.52336421
   0.48485993  0.49664427  0.49634646
   0.53401515  0.49483855  0.49402291
   0.55965732  0.51445866  0.51578618
 
 position of ions in cartesian coordinates  (Angst):
  14.16591365 13.91672939 15.16431419
  14.15988705 15.28795833 13.94949305
  14.31890119 15.61673183 15.70092621
  14.54579784 14.89932807 14.89039393
  16.02045440 14.84515663 14.82068717
  16.78971966 15.43375989 15.47358540
 


--------------------------------------------------------------------------------------------------------


 k-point  1 :   0.2500 0.2500 0.2500  plane waves:  490454
 k-point  2 :  -0.2500 0.2500 0.2500  plane waves:  490454
 k-point  3 :   0.2500-0.2500 0.2500  plane waves:  490454
 k-point  4 :  -0.2500-0.2500 0.2500  plane waves:  490454

 maximum and minimum number of plane-waves per node :    490454   490454

 maximum number of plane-waves:    490454
 maximum index in each direction: 
   IXMAX=   49   IYMAX=   49   IZMAX=   48
   IXMIN=  -49   IYMIN=  -49   IZMIN=  -49

 WARNING: aliasing errors must be expected set NGX to 198 to avoid them
 WARNING: aliasing errors must be expected set NGY to 198 to avoid them
 WARNING: aliasing errors must be expected set NGZ to 196 to avoid them
 aliasing errors are usually negligible using standard VASP settings
 and one can safely disregard these warnings

 serial   3D FFT for wavefunctions
 parallel 3D FFT for charge:
    minimum data exchange during FFTs selected (reduces bandwidth)


 total amount of memory used by VASP on root node  3203887. kBytes
========================================================================

   base      :      30000. kBytes
   nonlr-proj:        691. kBytes
   fftplans  :     924480. kBytes
   grid      :    1872000. kBytes
   one-center:         18. kBytes
   wavefun   :     376698. kBytes
 
     INWAV:  cpu time    0.0000: real time    0.0006
 Broyden mixing: mesh for mixing (old mesh)
   NGX = 97   NGY = 97   NGZ = 97
  (NGX  =300   NGY  =300   NGZ  =300)
  gives a total of 912673 points

 initial charge density was supplied:
 charge density of overlapping atoms calculated
 number of electron      16.0000000 magnetization 
 keeping initial charge density in first step


--------------------------------------------------------------------------------------------------------


 Maximum index for non-local projection operator         2267
 Maximum index for augmentation-charges         1492 (set IRDMAX)


--------------------------------------------------------------------------------------------------------


 First call to EWALD:  gamma=   0.059
 Maximum number of real-space cells 3x 3x 3
 Maximum number of reciprocal cells 3x 3x 3

 FEWALD executed in parallel
    FEWALD:  cpu time    0.0030: real time    0.0025


----------------------------------------- Iteration    1(   1)  ---------------------------------------


    POTLOK:  cpu time   30.2974: real time   30.3621
    SETDIJ:  cpu time    0.0060: real time    0.0064
     EDDAV:  cpu time  140.2077: real time  140.5238
       DOS:  cpu time    0.0000: real time    0.0003
    --------------------------------------------
      LOOP:  cpu time  170.5151: real time  170.8986

 eigenvalue-minimisations  :   160
 total energy-change (2. order) : 0.1144597E+03  (-0.2132387E+03)
 number of electron      16.0000000 magnetization 
 augmentation part       16.0000000 magnetization 

 Free energy of the ion-electron system (eV)
  ---------------------------------------------------
  alpha Z        PSCENC =         0.04144063
  Ewald energy   TEWEN  =       690.43645350
  -Hartree energ DENC   =     -1104.61747066
  -exchange      EXHF   =         0.00000000
  -V(xc)+E(xc)   XCENC  =        51.39824552
  PAW double counting   =       428.37890668     -430.73533574
  entropy T*S    EENTRO =        -0.20003142
  eigenvalues    EBANDS =      -116.40781424
  atomic energy  EATOM  =       596.16534815
  Solvation  Ediel_sol  =         0.00000000
  ---------------------------------------------------
  free energy    TOTEN  =       114.45974242 eV

  energy without entropy =      114.65977384  energy(sigma->0) =      114.55975813


--------------------------------------------------------------------------------------------------------




----------------------------------------- Iteration    1(   2)  ---------------------------------------


     EDDAV:  cpu time  162.7373: real time  163.1007
       DOS:  cpu time    0.0000: real time    0.0001
    --------------------------------------------
      LOOP:  cpu time  162.7403: real time  163.1048

 eigenvalue-minimisations  :   192
 total energy-change (2. order) :-0.1161870E+03  (-0.1134973E+03)
 number of electron      16.0000000 magnetization 
 augmentation part       16.0000000 magnetization 

 Free energy of the ion-electron system (eV)
  ---------------------------------------------------
  alpha Z        PSCENC =         0.04144063
  Ewald energy   TEWEN  =       690.43645350
  -Hartree energ DENC   =     -1104.61747066
  -exchange      EXHF   =         0.00000000
  -V(xc)+E(xc)   XCENC  =        51.39824552
  PAW double counting   =       428.37890668     -430.73533574
  entropy T*S    EENTRO =         0.00000000
  eigenvalues    EBANDS =      -232.79485591
  atomic energy  EATOM  =       596.16534815
  Solvation  Ediel_sol  =         0.00000000
  ---------------------------------------------------
  free energy    TOTEN  =        -1.72726783 eV

  energy without entropy =       -1.72726783  energy(sigma->0) =       -1.72726783


--------------------------------------------------------------------------------------------------------




----------------------------------------- Iteration    1(   3)  ---------------------------------------


     EDDAV:  cpu time  121.5855: real time  121.8543
       DOS:  cpu time    0.0000: real time    0.0002
    --------------------------------------------
      LOOP:  cpu time  121.5875: real time  121.8582

 eigenvalue-minimisations  :   128
 total energy-change (2. order) :-0.3495431E+02  (-0.3449643E+02)
 number of electron      16.0000000 magnetization 
 augmentation part       16.0000000 magnetization 

 Free energy of the ion-electron system (eV)
  ---------------------------------------------------
  alpha Z        PSCENC =         0.04144063
  Ewald energy   TEWEN  =       690.43645350
  -Hartree energ DENC   =     -1104.61747066
  -exchange      EXHF   =         0.00000000
  -V(xc)+E(xc)   XCENC  =        51.39824552
  PAW double counting   =       428.37890668     -430.73533574
  entropy T*S    EENTRO =         0.00000000
  eigenvalues    EBANDS =      -267.74916925
  atomic energy  EATOM  =       596.16534815
  Solvation  Ediel_sol  =         0.00000000
  ---------------------------------------------------
  free energy    TOTEN  =       -36.68158116 eV

  energy without entropy =      -36.68158116  energy(sigma->0) =      -36.68158116


--------------------------------------------------------------------------------------------------------




----------------------------------------- Iteration    1(   4)  ---------------------------------------


     EDDAV:  cpu time   93.6798: real time   93.8934
       DOS:  cpu time    0.0000: real time    0.0002
    --------------------------------------------
      LOOP:  cpu time   93.6808: real time   93.8971

 eigenvalue-minimisations  :   100
 total energy-change (2. order) :-0.3015977E+01  (-0.2935320E+01)
 number of electron      16.0000000 magnetization 
 augmentation part       16.0000000 magnetization 

 Free energy of the ion-electron system (eV)
  ---------------------------------------------------
  alpha Z        PSCENC =         0.04144063
  Ewald energy   TEWEN  =       690.43645350
  -Hartree energ DENC   =     -1104.61747066
  -exchange      EXHF   =         0.00000000
  -V(xc)+E(xc)   XCENC  =        51.39824552
  PAW double counting   =       428.37890668     -430.73533574
  entropy T*S    EENTRO =         0.00000000
  eigenvalues    EBANDS =      -270.76514673
  atomic energy  EATOM  =       596.16534815
  Solvation  Ediel_sol  =         0.00000000
  ---------------------------------------------------
  free energy    TOTEN  =       -39.69755865 eV

  energy without entropy =      -39.69755865  energy(sigma->0) =      -39.69755865


--------------------------------------------------------------------------------------------------------




----------------------------------------- Iteration    1(   5)  ---------------------------------------


     EDDAV:  cpu time  140.7706: real time  141.0856
       DOS:  cpu time    0.0000: real time    0.0002
    CHARGE:  cpu time    9.2666: real time    9.2909
    MIXING:  cpu time    0.7519: real time    0.7543
    --------------------------------------------
      LOOP:  cpu time  150.7911: real time  151.1359

 eigenvalue-minimisations  :   160
 total energy-change (2. order) :-0.8276694E-01  (-0.8251995E-01)
 number of electron      16.0000005 magnetization 
 augmentation part        0.5214436 magnetization 

 Broyden mixing:
  rms(total) = 0.11008E+01    rms(broyden)= 0.11001E+01
  rms(prec ) = 0.11443E+01
  weight for this iteration     100.00

 Free energy of the ion-electron system (eV)
  ---------------------------------------------------
  alpha Z        PSCENC =         0.04144063
  Ewald energy   TEWEN  =       690.43645350
  -Hartree energ DENC   =     -1104.61747066
  -exchange      EXHF   =         0.00000000
  -V(xc)+E(xc)   XCENC  =        51.39824552
  PAW double counting   =       428.37890668     -430.73533574
  entropy T*S    EENTRO =         0.00000000
  eigenvalues    EBANDS =      -270.84791367
  atomic energy  EATOM  =       596.16534815
  Solvation  Ediel_sol  =         0.00000000
  ---------------------------------------------------
  free energy    TOTEN  =       -39.78032559 eV

  energy without entropy =      -39.78032559  energy(sigma->0) =      -39.78032559


--------------------------------------------------------------------------------------------------------




----------------------------------------- Iteration    1(   6)  ---------------------------------------


    POTLOK:  cpu time   29.1286: real time   29.1925
    SETDIJ:  cpu time    0.0070: real time    0.0065
     EDDAV:  cpu time  102.4384: real time  102.6618
       DOS:  cpu time    0.0000: real time    0.0002
    CHARGE:  cpu time    9.5405: real time    9.5636
    MIXING:  cpu time    0.9279: real time    0.9299
    --------------------------------------------
      LOOP:  cpu time  142.0434: real time  142.3600

 eigenvalue-minimisations  :   116
 total energy-change (2. order) : 0.3243901E+01  (-0.6320661E+00)
 number of electron      16.0000005 magnetization 
 augmentation part        0.4461093 magnetization 

 Broyden mixing:
  rms(total) = 0.61507E+00    rms(broyden)= 0.61486E+00
  rms(prec ) = 0.63193E+00
  weight for this iteration     100.00

 eigenvalues of (default mixing * dielectric matrix)
  average eigenvalue GAMMA=   1.2078
  1.2078

 Free energy of the ion-electron system (eV)
  ---------------------------------------------------
  alpha Z        PSCENC =         0.04144063
  Ewald energy   TEWEN  =       690.43645350
  -Hartree energ DENC   =     -1136.88886536
  -exchange      EXHF   =         0.00000000
  -V(xc)+E(xc)   XCENC  =        53.15620047
  PAW double counting   =       725.22316921     -727.90436615
  entropy T*S    EENTRO =         0.00000000
  eigenvalues    EBANDS =      -236.76580552
  atomic energy  EATOM  =       596.16534815
  Solvation  Ediel_sol  =         0.00000000
  ---------------------------------------------------
  free energy    TOTEN  =       -36.53642508 eV

  energy without entropy =      -36.53642508  energy(sigma->0) =      -36.53642508


--------------------------------------------------------------------------------------------------------




----------------------------------------- Iteration    1(   7)  ---------------------------------------


    POTLOK:  cpu time   31.3752: real time   31.4448
    SETDIJ:  cpu time    0.0060: real time    0.0064
     EDDAV:  cpu time  109.3034: real time  109.5453
       DOS:  cpu time    0.0000: real time    0.0002
    CHARGE:  cpu time    9.3596: real time    9.3807
    MIXING:  cpu time    0.9829: real time    0.9848
    --------------------------------------------
      LOOP:  cpu time  151.0300: real time  151.3668

 eigenvalue-minimisations  :   112
 total energy-change (2. order) : 0.6257385E+00  (-0.1628058E+00)
 number of electron      16.0000005 magnetization 
 augmentation part        0.4560543 magnetization 

 Broyden mixing:
  rms(total) = 0.32840E+00    rms(broyden)= 0.32833E+00
  rms(prec ) = 0.33820E+00
  weight for this iteration     100.00

 eigenvalues of (default mixing * dielectric matrix)
  average eigenvalue GAMMA=   1.3401
  0.7811  1.8990

 Free energy of the ion-electron system (eV)
  ---------------------------------------------------
  alpha Z        PSCENC =         0.04144063
  Ewald energy   TEWEN  =       690.43645350
  -Hartree energ DENC   =     -1152.34957831
  -exchange      EXHF   =         0.00000000
  -V(xc)+E(xc)   XCENC  =        54.00349478
  PAW double counting   =      1006.85955325    -1009.64867574
  entropy T*S    EENTRO =         0.00000000
  eigenvalues    EBANDS =      -221.41872283
  atomic energy  EATOM  =       596.16534815
  Solvation  Ediel_sol  =         0.00000000
  ---------------------------------------------------
  free energy    TOTEN  =       -35.91068656 eV

  energy without entropy =      -35.91068656  energy(sigma->0) =      -35.91068656


--------------------------------------------------------------------------------------------------------




----------------------------------------- Iteration    1(   8)  ---------------------------------------


    POTLOK:  cpu time   31.1163: real time   31.1839
    SETDIJ:  cpu time    0.0060: real time    0.0068
     EDDAV:  cpu time  122.4404: real time  122.7114
       DOS:  cpu time    0.0000: real time    0.0002
    CHARGE:  cpu time    9.2816: real time    9.3016
    MIXING:  cpu time    1.0798: real time    1.0822
    --------------------------------------------
      LOOP:  cpu time  163.9271: real time  164.2913

 eigenvalue-minimisations  :   128
 total energy-change (2. order) : 0.2010416E+00  (-0.4672970E-01)
 number of electron      16.0000005 magnetization 
 augmentation part        0.4320794 magnetization 

 Broyden mixing:
  rms(total) = 0.12790E+00    rms(broyden)= 0.12785E+00
  rms(prec ) = 0.13195E+00
  weight for this iteration     100.00

 eigenvalues of (default mixing * dielectric matrix)
  average eigenvalue GAMMA=   1.4330
  2.2049  1.4175  0.6766

 Free energy of the ion-electron system (eV)
  ---------------------------------------------------
  alpha Z        PSCENC =         0.04144063
  Ewald energy   TEWEN  =       690.43645350
  -Hartree energ DENC   =     -1163.39243012
  -exchange      EXHF   =         0.00000000
  -V(xc)+E(xc)   XCENC  =        54.70584952
  PAW double counting   =      1245.28158851    -1248.13169766
  entropy T*S    EENTRO =         0.00000000
  eigenvalues    EBANDS =      -210.81619750
  atomic energy  EATOM  =       596.16534815
  Solvation  Ediel_sol  =         0.00000000
  ---------------------------------------------------
  free energy    TOTEN  =       -35.70964497 eV

  energy without entropy =      -35.70964497  energy(sigma->0) =      -35.70964497


--------------------------------------------------------------------------------------------------------




----------------------------------------- Iteration    1(   9)  ---------------------------------------


    POTLOK:  cpu time   31.1163: real time   31.1832
    SETDIJ:  cpu time    0.0060: real time    0.0065
     EDDAV:  cpu time  117.9781: real time  118.2406
       DOS:  cpu time    0.0000: real time    0.0002
    CHARGE:  cpu time    9.6695: real time    9.6914
    MIXING:  cpu time    1.1268: real time    1.1292
    --------------------------------------------
      LOOP:  cpu time  159.8977: real time  160.2562

 eigenvalue-minimisations  :   128
 total energy-change (2. order) : 0.2902418E-01  (-0.5415283E-02)
 number of electron      16.0000005 magnetization 
 augmentation part        0.4336639 magnetization 

 Broyden mixing:
  rms(total) = 0.38020E-01    rms(broyden)= 0.38007E-01
  rms(prec ) = 0.42301E-01
  weight for this iteration     100.00

 eigenvalues of (default mixing * dielectric matrix)
  average eigenvalue GAMMA=   1.3849
  2.2909  1.5753  0.9669  0.7066

 Free energy of the ion-electron system (eV)
  ---------------------------------------------------
  alpha Z        PSCENC =         0.04144063
  Ewald energy   TEWEN  =       690.43645350
  -Hartree energ DENC   =     -1166.04619700
  -exchange      EXHF   =         0.00000000
  -V(xc)+E(xc)   XCENC  =        54.87690344
  PAW double counting   =      1344.14421186    -1346.96813877
  entropy T*S    EENTRO =         0.00000000
  eigenvalues    EBANDS =      -208.33064260
  atomic energy  EATOM  =       596.16534815
  Solvation  Ediel_sol  =         0.00000000
  ---------------------------------------------------
  free energy    TOTEN  =       -35.68062079 eV

  energy without entropy =      -35.68062079  energy(sigma->0) =      -35.68062079


--------------------------------------------------------------------------------------------------------




----------------------------------------- Iteration    1(  10)  ---------------------------------------


    POTLOK:  cpu time   30.8113: real time   30.8796
    SETDIJ:  cpu time    0.0070: real time    0.0066
     EDDAV:  cpu time  118.8669: real time  119.1348
       DOS:  cpu time    0.0000: real time    0.0002
    CHARGE:  cpu time    9.2326: real time    9.2528
    MIXING:  cpu time    1.3568: real time    1.3598
    --------------------------------------------
      LOOP:  cpu time  160.2766: real time  160.6386

 eigenvalue-minimisations  :   124
 total energy-change (2. order) : 0.3585084E-02  (-0.5286967E-03)
 number of electron      16.0000005 magnetization 
 augmentation part        0.4348686 magnetization 

 Broyden mixing:
  rms(total) = 0.15594E-01    rms(broyden)= 0.15587E-01
  rms(prec ) = 0.20958E-01
  weight for this iteration     100.00

 eigenvalues of (default mixing * dielectric matrix)
  average eigenvalue GAMMA=   1.4576
  2.1887  2.1887  1.3342  0.7062  0.8702

 Free energy of the ion-electron system (eV)
  ---------------------------------------------------
  alpha Z        PSCENC =         0.04144063
  Ewald energy   TEWEN  =       690.43645350
  -Hartree energ DENC   =     -1166.99885298
  -exchange      EXHF   =         0.00000000
  -V(xc)+E(xc)   XCENC  =        54.90538210
  PAW double counting   =      1358.50390205    -1361.31849372
  entropy T*S    EENTRO =         0.00000000
  eigenvalues    EBANDS =      -207.41221543
  atomic energy  EATOM  =       596.16534815
  Solvation  Ediel_sol  =         0.00000000
  ---------------------------------------------------
  free energy    TOTEN  =       -35.67703570 eV

  energy without entropy =      -35.67703570  energy(sigma->0) =      -35.67703570


--------------------------------------------------------------------------------------------------------




----------------------------------------- Iteration    1(  11)  ---------------------------------------


    POTLOK:  cpu time   30.5674: real time   30.6362
    SETDIJ:  cpu time    0.0060: real time    0.0064
     EDDAV:  cpu time   93.6708: real time   93.8810
       DOS:  cpu time    0.0000: real time    0.0002
    CHARGE:  cpu time    9.3696: real time    9.3907
    MIXING:  cpu time    1.4798: real time    1.4839
    --------------------------------------------
      LOOP:  cpu time  135.0975: real time  135.4046

 eigenvalue-minimisations  :    96
 total energy-change (2. order) :-0.5668301E-03  (-0.2146994E-03)
 number of electron      16.0000005 magnetization 
 augmentation part        0.4345954 magnetization 

 Broyden mixing:
  rms(total) = 0.90805E-02    rms(broyden)= 0.90788E-02
  rms(prec ) = 0.13612E-01
  weight for this iteration     100.00

 eigenvalues of (default mixing * dielectric matrix)
  average eigenvalue GAMMA=   1.5605
  2.4251  2.4251  1.4400  1.4400  0.7055  0.9275

 Free energy of the ion-electron system (eV)
  ---------------------------------------------------
  alpha Z        PSCENC =         0.04144063
  Ewald energy   TEWEN  =       690.43645350
  -Hartree energ DENC   =     -1168.14639381
  -exchange      EXHF   =         0.00000000
  -V(xc)+E(xc)   XCENC  =        54.93096555
  PAW double counting   =      1358.79837416    -1361.60792931
  entropy T*S    EENTRO =         0.00000000
  eigenvalues    EBANDS =      -206.29586142
  atomic energy  EATOM  =       596.16534815
  Solvation  Ediel_sol  =         0.00000000
  ---------------------------------------------------
  free energy    TOTEN  =       -35.67760253 eV

  energy without entropy =      -35.67760253  energy(sigma->0) =      -35.67760253


--------------------------------------------------------------------------------------------------------




----------------------------------------- Iteration    1(  12)  ---------------------------------------


    POTLOK:  cpu time   32.0021: real time   32.0732
    SETDIJ:  cpu time    0.0070: real time    0.0067
     EDDAV:  cpu time  103.6762: real time  103.9088
       DOS:  cpu time    0.0000: real time    0.0002
    CHARGE:  cpu time    9.0766: real time    9.0969
    MIXING:  cpu time    1.6288: real time    1.6322
    --------------------------------------------
      LOOP:  cpu time  146.3927: real time  146.7229

 eigenvalue-minimisations  :   112
 total energy-change (2. order) :-0.4657220E-02  (-0.2384844E-03)
 number of electron      16.0000005 magnetization 
 augmentation part        0.4342329 magnetization 

 Broyden mixing:
  rms(total) = 0.45636E-02    rms(broyden)= 0.45599E-02
  rms(prec ) = 0.74667E-02
  weight for this iteration     100.00

 eigenvalues of (default mixing * dielectric matrix)
  average eigenvalue GAMMA=   1.6515
  3.4903  2.3073  0.7049  1.6268  0.8857  1.2727  1.2727

 Free energy of the ion-electron system (eV)
  ---------------------------------------------------
  alpha Z        PSCENC =         0.04144063
  Ewald energy   TEWEN  =       690.43645350
  -Hartree energ DENC   =     -1169.53164218
  -exchange      EXHF   =         0.00000000
  -V(xc)+E(xc)   XCENC  =        54.96085004
  PAW double counting   =      1354.94427976    -1357.75080796
  entropy T*S    EENTRO =         0.00000000
  eigenvalues    EBANDS =      -204.94818170
  atomic energy  EATOM  =       596.16534815
  Solvation  Ediel_sol  =         0.00000000
  ---------------------------------------------------
  free energy    TOTEN  =       -35.68225975 eV

  energy without entropy =      -35.68225975  energy(sigma->0) =      -35.68225975


--------------------------------------------------------------------------------------------------------




----------------------------------------- Iteration    1(  13)  ---------------------------------------


    POTLOK:  cpu time   31.2063: real time   31.2764
    SETDIJ:  cpu time    0.0060: real time    0.0069
     EDDAV:  cpu time  127.7836: real time  128.0661
       DOS:  cpu time    0.0000: real time    0.0002
    CHARGE:  cpu time    9.2546: real time    9.2771
    MIXING:  cpu time    1.5888: real time    1.5930
    --------------------------------------------
      LOOP:  cpu time  169.8422: real time  170.2257

 eigenvalue-minimisations  :   144
 total energy-change (2. order) :-0.4045659E-02  (-0.1522263E-03)
 number of electron      16.0000005 magnetization 
 augmentation part        0.4340358 magnetization 

 Broyden mixing:
  rms(total) = 0.33280E-02    rms(broyden)= 0.33260E-02
  rms(prec ) = 0.50085E-02
  weight for this iteration     100.00

 eigenvalues of (default mixing * dielectric matrix)
  average eigenvalue GAMMA=   1.7553
  4.1708  2.4665  1.6849  1.6849  1.4772  0.7048  0.9266  0.9266

 Free energy of the ion-electron system (eV)
  ---------------------------------------------------
  alpha Z        PSCENC =         0.04144063
  Ewald energy   TEWEN  =       690.43645350
  -Hartree energ DENC   =     -1170.35519382
  -exchange      EXHF   =         0.00000000
  -V(xc)+E(xc)   XCENC  =        54.97696448
  PAW double counting   =      1354.66160242    -1357.46757854
  entropy T*S    EENTRO =         0.00000000
  eigenvalues    EBANDS =      -204.14534223
  atomic energy  EATOM  =       596.16534815
  Solvation  Ediel_sol  =         0.00000000
  ---------------------------------------------------
  free energy    TOTEN  =       -35.68630541 eV

  energy without entropy =      -35.68630541  energy(sigma->0) =      -35.68630541


--------------------------------------------------------------------------------------------------------




----------------------------------------- Iteration    1(  14)  ---------------------------------------


    POTLOK:  cpu time   31.7262: real time   31.7963
    SETDIJ:  cpu time    0.0070: real time    0.0066
     EDDAV:  cpu time  110.0303: real time  110.2736
       DOS:  cpu time    0.0000: real time    0.0002
    CHARGE:  cpu time    9.4356: real time    9.4563
    MIXING:  cpu time    1.7977: real time    1.8018
    --------------------------------------------
      LOOP:  cpu time  152.9997: real time  153.3413

 eigenvalue-minimisations  :   120
 total energy-change (2. order) :-0.4535353E-02  (-0.6673036E-04)
 number of electron      16.0000005 magnetization 
 augmentation part        0.4340380 magnetization 

 Broyden mixing:
  rms(total) = 0.26286E-02    rms(broyden)= 0.26282E-02
  rms(prec ) = 0.34641E-02
  weight for this iteration     100.00

 eigenvalues of (default mixing * dielectric matrix)
  average eigenvalue GAMMA=   1.8043
  4.8686  2.6137  2.2345  1.6103  1.2282  1.2282  0.7048  0.8754  0.8754

 Free energy of the ion-electron system (eV)
  ---------------------------------------------------
  alpha Z        PSCENC =         0.04144063
  Ewald energy   TEWEN  =       690.43645350
  -Hartree energ DENC   =     -1170.65107675
  -exchange      EXHF   =         0.00000000
  -V(xc)+E(xc)   XCENC  =        54.97142528
  PAW double counting   =      1352.44927062    -1355.25518558
  entropy T*S    EENTRO =         0.00000000
  eigenvalues    EBANDS =      -203.84851662
  atomic energy  EATOM  =       596.16534815
  Solvation  Ediel_sol  =         0.00000000
  ---------------------------------------------------
  free energy    TOTEN  =       -35.69084077 eV

  energy without entropy =      -35.69084077  energy(sigma->0) =      -35.69084077


--------------------------------------------------------------------------------------------------------




----------------------------------------- Iteration    1(  15)  ---------------------------------------


    POTLOK:  cpu time   31.4362: real time   31.5059
    SETDIJ:  cpu time    0.0050: real time    0.0065
     EDDAV:  cpu time  118.1140: real time  118.3752
       DOS:  cpu time    0.0000: real time    0.0002
    CHARGE:  cpu time    9.1816: real time    9.2026
    MIXING:  cpu time    1.9047: real time    1.9100
    --------------------------------------------
      LOOP:  cpu time  160.6446: real time  161.0046

 eigenvalue-minimisations  :   128
 total energy-change (2. order) :-0.2312257E-02  (-0.2178074E-04)
 number of electron      16.0000005 magnetization 
 augmentation part        0.4339460 magnetization 

 Broyden mixing:
  rms(total) = 0.13353E-02    rms(broyden)= 0.13350E-02
  rms(prec ) = 0.19858E-02
  weight for this iteration     100.00

 eigenvalues of (default mixing * dielectric matrix)
  average eigenvalue GAMMA=   1.8930
  5.8273  2.9330  2.3071  1.5781  1.3344  1.3344  0.7051  0.8920  1.0094  1.0094

 Free energy of the ion-electron system (eV)
  ---------------------------------------------------
  alpha Z        PSCENC =         0.04144063
  Ewald energy   TEWEN  =       690.43645350
  -Hartree energ DENC   =     -1170.78348017
  -exchange      EXHF   =         0.00000000
  -V(xc)+E(xc)   XCENC  =        54.97023504
  PAW double counting   =      1352.48562006    -1355.29184768
  entropy T*S    EENTRO =         0.00000000
  eigenvalues    EBANDS =      -203.71692255
  atomic energy  EATOM  =       596.16534815
  Solvation  Ediel_sol  =         0.00000000
  ---------------------------------------------------
  free energy    TOTEN  =       -35.69315302 eV

  energy without entropy =      -35.69315302  energy(sigma->0) =      -35.69315302


--------------------------------------------------------------------------------------------------------




----------------------------------------- Iteration    1(  16)  ---------------------------------------


    POTLOK:  cpu time   31.0533: real time   31.1215
    SETDIJ:  cpu time    0.0060: real time    0.0067
     EDDAV:  cpu time  115.8394: real time  116.0956
       DOS:  cpu time    0.0000: real time    0.0002
    CHARGE:  cpu time    9.0316: real time    9.0517
    MIXING:  cpu time    2.0447: real time    2.0493
    --------------------------------------------
      LOOP:  cpu time  157.9760: real time  158.3293

 eigenvalue-minimisations  :   128
 total energy-change (2. order) :-0.1969767E-02  (-0.1843622E-04)
 number of electron      16.0000005 magnetization 
 augmentation part        0.4339515 magnetization 

 Broyden mixing:
  rms(total) = 0.92834E-03    rms(broyden)= 0.92796E-03
  rms(prec ) = 0.12660E-02
  weight for this iteration     100.00

 eigenvalues of (default mixing * dielectric matrix)
  average eigenvalue GAMMA=   2.0572
  6.9939  3.4464  2.4699  2.1690  1.6193  1.2211  1.2211  0.7050  0.8894  0.9469
  0.9469

 Free energy of the ion-electron system (eV)
  ---------------------------------------------------
  alpha Z        PSCENC =         0.04144063
  Ewald energy   TEWEN  =       690.43645350
  -Hartree energ DENC   =     -1170.86589195
  -exchange      EXHF   =         0.00000000
  -V(xc)+E(xc)   XCENC  =        54.96782415
  PAW double counting   =      1352.62286429    -1355.42905338
  entropy T*S    EENTRO =         0.00000000
  eigenvalues    EBANDS =      -203.63410818
  atomic energy  EATOM  =       596.16534815
  Solvation  Ediel_sol  =         0.00000000
  ---------------------------------------------------
  free energy    TOTEN  =       -35.69512279 eV

  energy without entropy =      -35.69512279  energy(sigma->0) =      -35.69512279


--------------------------------------------------------------------------------------------------------




----------------------------------------- Iteration    1(  17)  ---------------------------------------


    POTLOK:  cpu time   30.5554: real time   30.6235
    SETDIJ:  cpu time    0.0060: real time    0.0067
     EDDAV:  cpu time   93.0009: real time   93.2186
       DOS:  cpu time    0.0000: real time    0.0002
    CHARGE:  cpu time    9.1606: real time    9.1818
    MIXING:  cpu time    2.3046: real time    2.3096
    --------------------------------------------
      LOOP:  cpu time  135.0315: real time  135.3451

 eigenvalue-minimisations  :    96
 total energy-change (2. order) :-0.1368897E-02  (-0.7938627E-05)
 number of electron      16.0000005 magnetization 
 augmentation part        0.4339397 magnetization 

 Broyden mixing:
  rms(total) = 0.37631E-03    rms(broyden)= 0.37623E-03
  rms(prec ) = 0.55501E-03
  weight for this iteration     100.00

 eigenvalues of (default mixing * dielectric matrix)
  average eigenvalue GAMMA=   2.1019
  7.4946  4.0303  2.5151  2.3075  1.4773  1.4773  1.2127  1.2127  0.7051  0.8856
  0.9526  0.9526

 Free energy of the ion-electron system (eV)
  ---------------------------------------------------
  alpha Z        PSCENC =         0.04144063
  Ewald energy   TEWEN  =       690.43645350
  -Hartree energ DENC   =     -1170.89474130
  -exchange      EXHF   =         0.00000000
  -V(xc)+E(xc)   XCENC  =        54.96548329
  PAW double counting   =      1353.14661155    -1355.95279753
  entropy T*S    EENTRO =         0.00000000
  eigenvalues    EBANDS =      -203.60428999
  atomic energy  EATOM  =       596.16534815
  Solvation  Ediel_sol  =         0.00000000
  ---------------------------------------------------
  free energy    TOTEN  =       -35.69649169 eV

  energy without entropy =      -35.69649169  energy(sigma->0) =      -35.69649169


--------------------------------------------------------------------------------------------------------




----------------------------------------- Iteration    1(  18)  ---------------------------------------


    POTLOK:  cpu time   30.8303: real time   30.8995
    SETDIJ:  cpu time    0.0060: real time    0.0065
     EDDAV:  cpu time   91.3211: real time   91.5316
       DOS:  cpu time    0.0000: real time    0.0002
    CHARGE:  cpu time    8.6457: real time    8.6652
    MIXING:  cpu time    2.2457: real time    2.2505
    --------------------------------------------
      LOOP:  cpu time  133.0498: real time  133.3580

 eigenvalue-minimisations  :    96
 total energy-change (2. order) :-0.4405472E-03  (-0.4115845E-05)
 number of electron      16.0000005 magnetization 
 augmentation part        0.4339364 magnetization 

 Broyden mixing:
  rms(total) = 0.25793E-03    rms(broyden)= 0.25790E-03
  rms(prec ) = 0.35884E-03
  weight for this iteration     100.00

 eigenvalues of (default mixing * dielectric matrix)
  average eigenvalue GAMMA=   2.2201
  8.2337  4.6850  2.6217  2.6217  2.1268  1.6436  1.2153  1.2153  0.7051  0.8826
  0.9848  0.9629  0.9629

 Free energy of the ion-electron system (eV)
  ---------------------------------------------------
  alpha Z        PSCENC =         0.04144063
  Ewald energy   TEWEN  =       690.43645350
  -Hartree energ DENC   =     -1170.89077063
  -exchange      EXHF   =         0.00000000
  -V(xc)+E(xc)   XCENC  =        54.96444802
  PAW double counting   =      1353.11233783    -1355.91845489
  entropy T*S    EENTRO =         0.00000000
  eigenvalues    EBANDS =      -203.60773484
  atomic energy  EATOM  =       596.16534815
  Solvation  Ediel_sol  =         0.00000000
  ---------------------------------------------------
  free energy    TOTEN  =       -35.69693223 eV

  energy without entropy =      -35.69693223  energy(sigma->0) =      -35.69693223


--------------------------------------------------------------------------------------------------------




----------------------------------------- Iteration    1(  19)  ---------------------------------------


    POTLOK:  cpu time   26.6599: real time   26.7273
    SETDIJ:  cpu time    0.0070: real time    0.0067
     EDDAV:  cpu time   81.5566: real time   81.7393
       DOS:  cpu time    0.0000: real time    0.0002
    CHARGE:  cpu time    7.5689: real time    7.5858
    MIXING:  cpu time    2.2597: real time    2.2657
    --------------------------------------------
      LOOP:  cpu time  118.0551: real time  118.3300

 eigenvalue-minimisations  :    84
 total energy-change (2. order) :-0.3053693E-03  (-0.2113367E-05)
 number of electron      16.0000005 magnetization 
 augmentation part        0.4339376 magnetization 

 Broyden mixing:
  rms(total) = 0.12268E-03    rms(broyden)= 0.12262E-03
  rms(prec ) = 0.17144E-03
  weight for this iteration     100.00

 eigenvalues of (default mixing * dielectric matrix)
  average eigenvalue GAMMA=   2.2513
  8.5831  4.8573  3.3401  2.4455  2.2206  1.5909  1.5909  1.2181  1.2181  0.7051
  0.9513  0.9513  0.8949  0.9511

 Free energy of the ion-electron system (eV)
  ---------------------------------------------------
  alpha Z        PSCENC =         0.04144063
  Ewald energy   TEWEN  =       690.43645350
  -Hartree energ DENC   =     -1170.88213111
  -exchange      EXHF   =         0.00000000
  -V(xc)+E(xc)   XCENC  =        54.96358349
  PAW double counting   =      1352.92883291    -1355.73490550
  entropy T*S    EENTRO =         0.00000000
  eigenvalues    EBANDS =      -203.61585969
  atomic energy  EATOM  =       596.16534815
  Solvation  Ediel_sol  =         0.00000000
  ---------------------------------------------------
  free energy    TOTEN  =       -35.69723760 eV

  energy without entropy =      -35.69723760  energy(sigma->0) =      -35.69723760


--------------------------------------------------------------------------------------------------------




----------------------------------------- Iteration    1(  20)  ---------------------------------------


    POTLOK:  cpu time   25.9810: real time   26.0372
    SETDIJ:  cpu time    0.0060: real time    0.0065
     EDDAV:  cpu time   96.5423: real time   96.7563
       DOS:  cpu time    0.0000: real time    0.0002
    CHARGE:  cpu time    8.8097: real time    8.8300
    MIXING:  cpu time    2.6596: real time    2.6657
    --------------------------------------------
      LOOP:  cpu time  134.0016: real time  134.3009

 eigenvalue-minimisations  :    96
 total energy-change (2. order) :-0.1041316E-03  (-0.6393295E-06)
 number of electron      16.0000005 magnetization 
 augmentation part        0.4339351 magnetization 

 Broyden mixing:
  rms(total) = 0.76659E-04    rms(broyden)= 0.76635E-04
  rms(prec ) = 0.10200E-03
  weight for this iteration     100.00

 eigenvalues of (default mixing * dielectric matrix)
  average eigenvalue GAMMA=   2.2890
  8.7188  5.6581  3.2370  2.6502  2.3688  2.0827  1.6563  1.2107  1.2107  0.7051
  1.1006  0.9578  0.9578  0.9102  0.9102

 Free energy of the ion-electron system (eV)
  ---------------------------------------------------
  alpha Z        PSCENC =         0.04144063
  Ewald energy   TEWEN  =       690.43645350
  -Hartree energ DENC   =     -1170.89034833
  -exchange      EXHF   =         0.00000000
  -V(xc)+E(xc)   XCENC  =        54.96369995
  PAW double counting   =      1352.92830072    -1355.73438839
  entropy T*S    EENTRO =         0.00000000
  eigenvalues    EBANDS =      -203.60784797
  atomic energy  EATOM  =       596.16534815
  Solvation  Ediel_sol  =         0.00000000
  ---------------------------------------------------
  free energy    TOTEN  =       -35.69734174 eV

  energy without entropy =      -35.69734174  energy(sigma->0) =      -35.69734174


--------------------------------------------------------------------------------------------------------




----------------------------------------- Iteration    1(  21)  ---------------------------------------


    POTLOK:  cpu time   28.4157: real time   28.4778
    SETDIJ:  cpu time    0.0060: real time    0.0066
     EDDAV:  cpu time   67.9107: real time   68.0569
       DOS:  cpu time    0.0010: real time    0.0002
    --------------------------------------------
      LOOP:  cpu time   96.3344: real time   96.5453

 eigenvalue-minimisations  :    68
 total energy-change (2. order) :-0.4442450E-04  (-0.2372742E-06)
 number of electron      16.0000005 magnetization 
 augmentation part        0.4339351 magnetization 

 Free energy of the ion-electron system (eV)
  ---------------------------------------------------
  alpha Z        PSCENC =         0.04144063
  Ewald energy   TEWEN  =       690.43645350
  -Hartree energ DENC   =     -1170.88744297
  -exchange      EXHF   =         0.00000000
  -V(xc)+E(xc)   XCENC  =        54.96348441
  PAW double counting   =      1352.94318771    -1355.74930467
  entropy T*S    EENTRO =         0.00000000
  eigenvalues    EBANDS =      -203.61055292
  atomic energy  EATOM  =       596.16534815
  Solvation  Ediel_sol  =         0.00000000
  ---------------------------------------------------
  free energy    TOTEN  =       -35.69738616 eV

  energy without entropy =      -35.69738616  energy(sigma->0) =      -35.69738616


--------------------------------------------------------------------------------------------------------




 average (electrostatic) potential at core
  the test charge radii are     0.5201  0.6991  0.7089
  (the norm of the test charge is              1.0000)
       1 -42.9495       2 -42.9498       3 -42.7306       4 -59.8654       5 -60.0097
       6 -73.6042
 
 
 
 E-fermi :  -6.8168     XC(G=0):  -0.0874     alpha+bet : -0.0137


 k-point     1 :       0.2500    0.2500    0.2500
  band No.  band energies     occupation 
      1     -22.9902      2.00000
      2     -18.8010      2.00000
      3     -12.2989      2.00000
      4     -11.5092      2.00000
      5     -11.2004      2.00000
      6      -9.0287      2.00000
      7      -8.2386      2.00000
      8      -7.7383      2.00000
      9      -2.6831      0.00000
     10      -0.4229      0.00000
     11      -0.3982      0.00000
     12      -0.0006      0.00000

 k-point     2 :      -0.2500    0.2500    0.2500
  band No.  band energies     occupation 
      1     -22.9902      2.00000
      2     -18.8010      2.00000
      3     -12.2989      2.00000
      4     -11.5092      2.00000
      5     -11.2004      2.00000
      6      -9.0287      2.00000
      7      -8.2386      2.00000
      8      -7.7383      2.00000
      9      -2.6831      0.00000
     10      -0.4229      0.00000
     11      -0.3982      0.00000
     12      -0.0036      0.00000

 k-point     3 :       0.2500   -0.2500    0.2500
  band No.  band energies     occupation 
      1     -22.9902      2.00000
      2     -18.8010      2.00000
      3     -12.2989      2.00000
      4     -11.5092      2.00000
      5     -11.2004      2.00000
      6      -9.0287      2.00000
      7      -8.2386      2.00000
      8      -7.7383      2.00000
      9      -2.6831      0.00000
     10      -0.4230      0.00000
     11      -0.3982      0.00000
     12      -0.0018      0.00000

 k-point     4 :      -0.2500   -0.2500    0.2500
  band No.  band energies     occupation 
      1     -22.9902      2.00000
      2     -18.8010      2.00000
      3     -12.2989      2.00000
      4     -11.5092      2.00000
      5     -11.2004      2.00000
      6      -9.0287      2.00000
      7      -8.2386      2.00000
      8      -7.7383      2.00000
      9      -2.6831      0.00000
     10      -0.4230      0.00000
     11      -0.3982      0.00000
     12      -0.0018      0.00000


--------------------------------------------------------------------------------------------------------


 soft charge-density along one line, spin component           1
         0         1         2         3         4         5         6         7         8         9
 total charge-density along one line
 
 pseudopotential strength for first ion, spin component:           1
 -2.361  -4.071  -0.002   0.000  -0.001
 -4.071  -6.935  -0.005   0.001  -0.002
 -0.002  -0.005  -0.330  -0.001   0.002
  0.000   0.001  -0.001  -0.334   0.000
 -0.001  -0.002   0.002   0.000  -0.333
 total augmentation occupancy for first ion, spin component:           1
  3.550  -0.638   0.407  -0.116   0.158
 -0.638   0.131  -0.075   0.020  -0.030
  0.407  -0.075   0.049  -0.011   0.016
 -0.116   0.020  -0.011   0.012  -0.004
  0.158  -0.030   0.016  -0.004   0.014


------------------------ aborting loop because EDIFF is reached ----------------------------------------


    CHARGE:  cpu time    8.3957: real time    8.4147
    FORLOC:  cpu time    2.6596: real time    2.6652
    FORNL :  cpu time   23.8634: real time   23.9160
    STRESS:  cpu time   60.3668: real time   60.4934
    FORCOR:  cpu time   18.8641: real time   18.9011
    FORHAR:  cpu time    6.6030: real time    6.6145
    MIXING:  cpu time    1.3418: real time    1.3444
    OFIELD:  cpu time    0.0000: real time    0.0000

  FORCE on cell =-STRESS in cart. coord.  units (eV):
  Direction    XX          YY          ZZ          XY          YZ          ZX
  --------------------------------------------------------------------------------------
  Alpha Z     0.04144     0.04144     0.04144
  Ewald     453.36270   110.95843   126.11541   111.36833    74.59745   121.85149
  Hartree   535.70649   314.68863   320.48979    53.39562    28.96713    58.11759
  E(xc)     -59.50110   -60.07292   -60.02419     0.32447     0.23964     0.35738
  Local   -1147.76585  -590.98363  -610.41754  -158.02754   -96.21635  -172.52952
  n-local   -25.05059   -25.81799   -26.10983    -2.44717    -1.45062    -2.71312
  augment     0.51413     0.37532     0.35845     0.10120    -0.07052     0.09751
  Kinetic   245.68200   249.58924   248.24551    -3.28529    -6.32162    -3.60706
  Fock        0.00000     0.00000     0.00000     0.00000     0.00000     0.00000
  -------------------------------------------------------------------------------------
  Total       2.98921    -1.22149    -1.30095     1.42961    -0.25488     1.57426
  in kB       0.17738    -0.07248    -0.07720     0.08483    -0.01512     0.09342
  external pressure =        0.01 kB  Pullay stress =        0.00 kB


 VOLUME and BASIS-vectors are now :
 -----------------------------------------------------------------------------
  energy-cutoff  :      400.00
  volume of cell :    27000.00
      direct lattice vectors                 reciprocal lattice vectors
    30.000000000  0.000000000  0.000000000     0.033333333  0.000000000  0.000000000
     0.000000000 30.000000000  0.000000000     0.000000000  0.033333333  0.000000000
     0.000000000  0.000000000 30.000000000     0.000000000  0.000000000  0.033333333

  length of vectors
    30.000000000 30.000000000 30.000000000     0.033333333  0.033333333  0.033333333


 FORCES acting on ions
    electron-ion (+dipol)            ewald-force                    non-local-force                 convergence-correction
 -----------------------------------------------------------------------------------------------
   0.330E+02 0.555E+02 -.138E+02   -.355E+02 -.609E+02 0.151E+02   0.198E+01 0.520E+01 -.153E+01   0.665E-04 0.651E-04 -.169E-04
   0.334E+02 -.202E+02 0.533E+02   -.359E+02 0.221E+02 -.585E+02   0.201E+01 -.214E+01 0.497E+01   0.669E-04 -.242E-04 0.622E-04
   0.303E+02 -.382E+02 -.433E+02   -.315E+02 0.415E+02 0.471E+02   0.113E+01 -.361E+01 -.408E+01   0.697E-04 -.576E-04 -.653E-04
   0.104E+03 0.118E+02 0.125E+02   -.109E+03 -.115E+02 -.122E+02   0.522E+01 -.508E+00 -.602E+00   0.516E-03 -.145E-05 -.325E-05
   -.206E+01 0.108E+03 0.121E+03   0.486E+00 -.112E+03 -.125E+03   0.601E+00 0.514E+01 0.574E+01   -.319E-03 0.376E-03 0.420E-03
   -.188E+03 -.101E+03 -.111E+03   0.212E+03 0.121E+03 0.134E+03   -.218E+02 -.207E+02 -.229E+02   -.763E-03 -.298E-03 -.332E-03
 -----------------------------------------------------------------------------------------------
   0.109E+02 0.166E+02 0.185E+02   0.000E+00 0.142E-13 0.284E-13   -.109E+02 -.166E+02 -.185E+02   -.363E-03 0.596E-04 0.644E-04
 
 
 POSITION                                       TOTAL-FORCE (eV/Angst)
 -----------------------------------------------------------------------------------
     14.16591     13.91673     15.16431        -0.455567     -0.210381     -0.270606
     14.15989     15.28796     13.94949        -0.453382     -0.248408     -0.235533
     14.31890     15.61673     15.70093        -0.096934     -0.251753     -0.281302
     14.54580     14.89933     14.89039        -0.260127     -0.253249     -0.279170
     16.02045     14.84516     14.82069        -0.968054      1.235470      1.388963
     16.78972     15.43376     15.47359         2.234065     -0.271679     -0.322351
 -----------------------------------------------------------------------------------
    total drift:                               -0.009947     -0.004896     -0.006036


--------------------------------------------------------------------------------------------------------



  FREE ENERGIE OF THE ION-ELECTRON SYSTEM (eV)
  ---------------------------------------------------
  free  energy   TOTEN  =       -35.69738616 eV

  energy  without entropy=      -35.69738616  energy(sigma->0) =      -35.69738616
 


--------------------------------------------------------------------------------------------------------


    POTLOK:  cpu time   16.6895: real time   16.7212


--------------------------------------------------------------------------------------------------------


 NEB: the previous image is higher in energy: T
 NEB: the next image is higher in energy    : F
 NEB: only prev energy greater

 NEB: Tangent
 ----------------------------------------------
     -0.14032     -0.06464     -0.08360
     -0.13908     -0.07616     -0.07251
     -0.02968     -0.07737     -0.08637
     -0.07994     -0.07802     -0.08607
     -0.29848      0.37952      0.42678
      0.68751     -0.08333     -0.09822

 NEB: forces: par spring, perp REAL, dneb     0.005884    0.005132    0.000000
 NEB: distance to prev, next image, angle between     0.247209    0.248386  161.077916
 NEB: projections on to tangent (spring, REAL)     0.005884    3.251289

 stress matrix after NEB project (eV)
      2.98921      1.42961      1.57426
      1.42961     -1.22149     -0.25488
      1.57426     -0.25488     -1.30095
  FORCES: max atom, RMS     0.005457    0.003187
  FORCE total and by dimension    0.007808    0.003899
  Stress total and by dimension    4.614541    2.989210
 
 OPT: Flag T
 OPT: FIRE Step
 OPT: FIRE, TIMESTEP      0.10000
 OPT: FIRE, alpha         0.10000


--------------------------------------------------------------------------------------------------------


    WAVPRE:  cpu time    6.9459: real time    6.9598
 FEWALD executed in parallel
    FEWALD:  cpu time    0.0010: real time    0.0003
    ORTHCH:  cpu time    6.0901: real time    6.1016
     LOOP+:  cpu time 3185.2498: real time 3192.4105


----------------------------------------- Iteration    2(   1)  ---------------------------------------


    POTLOK:  cpu time   21.8727: real time   21.9209
    SETDIJ:  cpu time    0.0070: real time    0.0065
     EDDAV:  cpu time   61.4447: real time   61.5760
       DOS:  cpu time    0.0000: real time    0.0002
    CHARGE:  cpu time    6.4680: real time    6.4827
    MIXING:  cpu time    0.6179: real time    0.6200
    --------------------------------------------
      LOOP:  cpu time   90.4133: real time   90.6080

 eigenvalue-minimisations  :    80
 total energy-change (2. order) :-0.2642115E-03  (-0.1593371E-05)
 number of electron      16.0000005 magnetization 
 augmentation part        0.4339546 magnetization 

 Broyden mixing:
  rms(total) = 0.14208E-03    rms(broyden)= 0.14137E-03
  rms(prec ) = 0.14817E-03
  weight for this iteration     100.00

 Free energy of the ion-electron system (eV)
  ---------------------------------------------------
  alpha Z        PSCENC =         0.04144063
  Ewald energy   TEWEN  =       690.44458221
  -Hartree energ DENC   =     -1170.88985821
  -exchange      EXHF   =         0.00000000
  -V(xc)+E(xc)   XCENC  =        54.96351853
  PAW double counting   =      1352.93015531    -1355.73624474
  entropy T*S    EENTRO =         0.00000000
  eigenvalues    EBANDS =      -203.61654782
  atomic energy  EATOM  =       596.16534815
  Solvation  Ediel_sol  =         0.00000000
  ---------------------------------------------------
  free energy    TOTEN  =       -35.69760595 eV

  energy without entropy =      -35.69760595  energy(sigma->0) =      -35.69760595


--------------------------------------------------------------------------------------------------------




----------------------------------------- Iteration    2(   2)  ---------------------------------------


    POTLOK:  cpu time   20.3209: real time   20.3636
    SETDIJ:  cpu time    0.0050: real time    0.0062
     EDDAV:  cpu time   70.6263: real time   70.7778
       DOS:  cpu time    0.0010: real time    0.0002
    CHARGE:  cpu time    5.9481: real time    5.9681
    MIXING:  cpu time    0.5769: real time    0.5787
    --------------------------------------------
      LOOP:  cpu time   97.4792: real time   97.6999

 eigenvalue-minimisations  :    96
 total energy-change (2. order) :-0.5280527E-05  (-0.9679142E-07)
 number of electron      16.0000005 magnetization 
 augmentation part        0.4339503 magnetization 

 Broyden mixing:
  rms(total) = 0.76295E-04    rms(broyden)= 0.76184E-04
  rms(prec ) = 0.80199E-04
  weight for this iteration     100.00

 eigenvalues of (default mixing * dielectric matrix)
  average eigenvalue GAMMA=   0.8935
  0.8935

 Free energy of the ion-electron system (eV)
  ---------------------------------------------------
  alpha Z        PSCENC =         0.04144063
  Ewald energy   TEWEN  =       690.44458221
  -Hartree energ DENC   =     -1170.89190208
  -exchange      EXHF   =         0.00000000
  -V(xc)+E(xc)   XCENC  =        54.96362700
  PAW double counting   =      1352.95460398    -1355.76072400
  entropy T*S    EENTRO =         0.00000000
  eigenvalues    EBANDS =      -203.61458711
  atomic energy  EATOM  =       596.16534815
  Solvation  Ediel_sol  =         0.00000000
  ---------------------------------------------------
  free energy    TOTEN  =       -35.69761123 eV

  energy without entropy =      -35.69761123  energy(sigma->0) =      -35.69761123


--------------------------------------------------------------------------------------------------------




----------------------------------------- Iteration    2(   3)  ---------------------------------------


    POTLOK:  cpu time   20.8378: real time   20.8929
[...]
  Solvation  Ediel_sol  =         0.00000000
  ---------------------------------------------------
  free energy    TOTEN  =       -35.71900137 eV

  energy without entropy =      -35.71900137  energy(sigma->0) =      -35.71900137


--------------------------------------------------------------------------------------------------------




----------------------------------------- Iteration   74(   2)  ---------------------------------------


    POTLOK:  cpu time   24.0573: real time   24.1021
    SETDIJ:  cpu time    0.0060: real time    0.0063
     EDDAV:  cpu time   37.3373: real time   37.4102
       DOS:  cpu time    0.0000: real time    0.0002
    CHARGE:  cpu time    5.2722: real time    5.2827
    MIXING:  cpu time    0.6449: real time    0.6460
    --------------------------------------------
      LOOP:  cpu time   67.3198: real time   67.4521

 eigenvalue-minimisations  :    48
 total energy-change (2. order) :-0.8914185E-08  (-0.2365178E-07)
 number of electron      16.0000006 magnetization 
 augmentation part        0.4341910 magnetization 

 Broyden mixing:
  rms(total) = 0.36744E-04    rms(broyden)= 0.36681E-04
  rms(prec ) = 0.37246E-04
  weight for this iteration     100.00

 eigenvalues of (default mixing * dielectric matrix)
  average eigenvalue GAMMA=   1.5616
  1.5616

 Free energy of the ion-electron system (eV)
  ---------------------------------------------------
  alpha Z        PSCENC =         0.04144063
  Ewald energy   TEWEN  =       690.29283919
  -Hartree energ DENC   =     -1170.74539047
  -exchange      EXHF   =         0.00000000
  -V(xc)+E(xc)   XCENC  =        54.96795021
  PAW double counting   =      1354.29556895    -1357.10211819
  entropy T*S    EENTRO =         0.00000000
  eigenvalues    EBANDS =      -203.63463985
  atomic energy  EATOM  =       596.16534815
  Solvation  Ediel_sol  =         0.00000000
  ---------------------------------------------------
  free energy    TOTEN  =       -35.71900138 eV

  energy without entropy =      -35.71900138  energy(sigma->0) =      -35.71900138


--------------------------------------------------------------------------------------------------------




----------------------------------------- Iteration   74(   3)  ---------------------------------------


    POTLOK:  cpu time   22.5876: real time   22.6305
    SETDIJ:  cpu time    0.0070: real time    0.0063
     EDDAV:  cpu time   36.4395: real time   36.5104
       DOS:  cpu time    0.0000: real time    0.0002
    CHARGE:  cpu time    5.0512: real time    5.0604
    MIXING:  cpu time    0.7299: real time    0.7319
    --------------------------------------------
      LOOP:  cpu time   64.8161: real time   64.9433

 eigenvalue-minimisations  :    48
 total energy-change (2. order) :-0.2430625E-08  (-0.4606606E-08)
 number of electron      16.0000006 magnetization 
 augmentation part        0.4341912 magnetization 

 Broyden mixing:
  rms(total) = 0.16375E-04    rms(broyden)= 0.16361E-04
  rms(prec ) = 0.16622E-04
  weight for this iteration     100.00

 eigenvalues of (default mixing * dielectric matrix)
  average eigenvalue GAMMA=   1.6001
  1.0060  2.1942

 Free energy of the ion-electron system (eV)
  ---------------------------------------------------
  alpha Z        PSCENC =         0.04144063
  Ewald energy   TEWEN  =       690.29283919
  -Hartree energ DENC   =     -1170.74498874
  -exchange      EXHF   =         0.00000000
  -V(xc)+E(xc)   XCENC  =        54.96792615
  PAW double counting   =      1354.28821891    -1357.09475863
  entropy T*S    EENTRO =         0.00000000
  eigenvalues    EBANDS =      -203.63502704
  atomic energy  EATOM  =       596.16534815
  Solvation  Ediel_sol  =         0.00000000
  ---------------------------------------------------
  free energy    TOTEN  =       -35.71900138 eV

  energy without entropy =      -35.71900138  energy(sigma->0) =      -35.71900138


--------------------------------------------------------------------------------------------------------




----------------------------------------- Iteration   74(   4)  ---------------------------------------


    POTLOK:  cpu time   22.6796: real time   22.7217
    SETDIJ:  cpu time    0.0060: real time    0.0062
     EDDAV:  cpu time   35.5736: real time   35.6417
       DOS:  cpu time    0.0000: real time    0.0002
    CHARGE:  cpu time    5.0482: real time    5.0573
    MIXING:  cpu time    0.7589: real time    0.7607
    --------------------------------------------
      LOOP:  cpu time   64.0673: real time   64.1917

 eigenvalue-minimisations  :    48
 total energy-change (2. order) :-0.6493792E-09  (-0.2508377E-08)
 number of electron      16.0000006 magnetization 
 augmentation part        0.4341915 magnetization 

 Broyden mixing:
  rms(total) = 0.73343E-05    rms(broyden)= 0.73278E-05
  rms(prec ) = 0.74430E-05
  weight for this iteration     100.00

 eigenvalues of (default mixing * dielectric matrix)
  average eigenvalue GAMMA=   1.6890
  0.9478  2.0596  2.0596

 Free energy of the ion-electron system (eV)
  ---------------------------------------------------
  alpha Z        PSCENC =         0.04144063
  Ewald energy   TEWEN  =       690.29283919
  -Hartree energ DENC   =     -1170.74471931
  -exchange      EXHF   =         0.00000000
  -V(xc)+E(xc)   XCENC  =        54.96791323
  PAW double counting   =      1354.28358963    -1357.09012519
  entropy T*S    EENTRO =         0.00000000
  eigenvalues    EBANDS =      -203.63528771
  atomic energy  EATOM  =       596.16534815
  Solvation  Ediel_sol  =         0.00000000
  ---------------------------------------------------
  free energy    TOTEN  =       -35.71900138 eV

  energy without entropy =      -35.71900138  energy(sigma->0) =      -35.71900138


--------------------------------------------------------------------------------------------------------




----------------------------------------- Iteration   74(   5)  ---------------------------------------


    POTLOK:  cpu time   24.3233: real time   24.3701
    SETDIJ:  cpu time    0.0060: real time    0.0062
     EDDAV:  cpu time   35.2466: real time   35.3141
       DOS:  cpu time    0.0000: real time    0.0002
    CHARGE:  cpu time    5.1182: real time    5.1285
    MIXING:  cpu time    1.0638: real time    1.0656
    --------------------------------------------
      LOOP:  cpu time   65.7590: real time   65.8882

 eigenvalue-minimisations  :    48
 total energy-change (2. order) :-0.3394689E-09  (-0.1992577E-08)
 number of electron      16.0000006 magnetization 
 augmentation part        0.4341917 magnetization 

 Broyden mixing:
  rms(total) = 0.34941E-05    rms(broyden)= 0.34902E-05
  rms(prec ) = 0.35648E-05
  weight for this iteration     100.00

 eigenvalues of (default mixing * dielectric matrix)
  average eigenvalue GAMMA=   1.7872
  2.9436  2.2652  0.8763  1.0636

 Free energy of the ion-electron system (eV)
  ---------------------------------------------------
  alpha Z        PSCENC =         0.04144063
  Ewald energy   TEWEN  =       690.29283919
  -Hartree energ DENC   =     -1170.74465221
  -exchange      EXHF   =         0.00000000
  -V(xc)+E(xc)   XCENC  =        54.96791164
  PAW double counting   =      1354.28176269    -1357.08829878
  entropy T*S    EENTRO =         0.00000000
  eigenvalues    EBANDS =      -203.63535270
  atomic energy  EATOM  =       596.16534815
  Solvation  Ediel_sol  =         0.00000000
  ---------------------------------------------------
  free energy    TOTEN  =       -35.71900138 eV

  energy without entropy =      -35.71900138  energy(sigma->0) =      -35.71900138


--------------------------------------------------------------------------------------------------------




----------------------------------------- Iteration   74(   6)  ---------------------------------------


    POTLOK:  cpu time   24.4993: real time   24.5465
    SETDIJ:  cpu time    0.0070: real time    0.0062
     EDDAV:  cpu time   35.5236: real time   35.5931
       DOS:  cpu time    0.0000: real time    0.0002
    --------------------------------------------
      LOOP:  cpu time   60.0309: real time   60.1494

 eigenvalue-minimisations  :    48
 total energy-change (2. order) : 0.5888978E-10  (-0.1862860E-08)
 number of electron      16.0000006 magnetization 
 augmentation part        0.4341917 magnetization 

 Free energy of the ion-electron system (eV)
  ---------------------------------------------------
  alpha Z        PSCENC =         0.04144063
  Ewald energy   TEWEN  =       690.29283919
  -Hartree energ DENC   =     -1170.74460435
  -exchange      EXHF   =         0.00000000
  -V(xc)+E(xc)   XCENC  =        54.96791075
  PAW double counting   =      1354.28060831    -1357.08714476
  entropy T*S    EENTRO =         0.00000000
  eigenvalues    EBANDS =      -203.63539930
  atomic energy  EATOM  =       596.16534815
  Solvation  Ediel_sol  =         0.00000000
  ---------------------------------------------------
  free energy    TOTEN  =       -35.71900138 eV

  energy without entropy =      -35.71900138  energy(sigma->0) =      -35.71900138


--------------------------------------------------------------------------------------------------------




 average (electrostatic) potential at core
  the test charge radii are     0.5201  0.6991  0.7089
  (the norm of the test charge is              1.0000)
       1 -42.9547       2 -42.9546       3 -42.7401       4 -59.8676       5 -60.0108
       6 -73.5932
 
 
 
 E-fermi :  -6.7948     XC(G=0):  -0.0606     alpha+bet : -0.0137


 k-point     1 :       0.2500    0.2500    0.2500
  band No.  band energies     occupation 
      1     -22.9804      2.00000
      2     -18.8159      2.00000
      3     -12.3060      2.00000
      4     -11.5119      2.00000
      5     -11.2087      2.00000
      6      -9.0190      2.00000
      7      -8.2349      2.00000
      8      -7.7408      2.00000
      9      -2.6568      0.00000
     10      -0.4209      0.00000
     11      -0.3994      0.00000
     12       0.0274      0.00000

 k-point     2 :      -0.2500    0.2500    0.2500
  band No.  band energies     occupation 
      1     -22.9804      2.00000
      2     -18.8159      2.00000
      3     -12.3060      2.00000
      4     -11.5119      2.00000
      5     -11.2087      2.00000
      6      -9.0190      2.00000
      7      -8.2349      2.00000
      8      -7.7409      2.00000
      9      -2.6568      0.00000
     10      -0.4209      0.00000
     11      -0.3994      0.00000
     12       0.0243      0.00000

 k-point     3 :       0.2500   -0.2500    0.2500
  band No.  band energies     occupation 
      1     -22.9804      2.00000
      2     -18.8159      2.00000
      3     -12.3060      2.00000
      4     -11.5119      2.00000
      5     -11.2087      2.00000
      6      -9.0190      2.00000
      7      -8.2349      2.00000
      8      -7.7409      2.00000
      9      -2.6567      0.00000
     10      -0.4209      0.00000
     11      -0.3994      0.00000
     12       0.0258      0.00000

 k-point     4 :      -0.2500   -0.2500    0.2500
  band No.  band energies     occupation 
      1     -22.9804      2.00000
      2     -18.8159      2.00000
      3     -12.3060      2.00000
      4     -11.5119      2.00000
      5     -11.2087      2.00000
      6      -9.0190      2.00000
      7      -8.2350      2.00000
      8      -7.7409      2.00000
      9      -2.6567      0.00000
     10      -0.4209      0.00000
     11      -0.3994      0.00000
     12       0.0257      0.00000


--------------------------------------------------------------------------------------------------------


 soft charge-density along one line, spin component           1
         0         1         2         3         4         5         6         7         8         9
 total charge-density along one line
 
 pseudopotential strength for first ion, spin component:           1
 -2.361  -4.071  -0.002   0.000  -0.001
 -4.071  -6.936  -0.005   0.001  -0.002
 -0.002  -0.005  -0.330  -0.001   0.002
  0.000   0.001  -0.001  -0.334   0.000
 -0.001  -0.002   0.002   0.000  -0.333
 total augmentation occupancy for first ion, spin component:           1
  3.548  -0.638   0.407  -0.117   0.158
 -0.638   0.131  -0.075   0.020  -0.030
  0.407  -0.075   0.048  -0.011   0.016
 -0.117   0.020  -0.011   0.012  -0.004
  0.158  -0.030   0.016  -0.004   0.014


------------------------ aborting loop because EDIFF is reached ----------------------------------------


    CHARGE:  cpu time    5.2692: real time    5.2796
    FORLOC:  cpu time    2.3526: real time    2.3561
    FORNL :  cpu time   16.7994: real time   16.8339
    STRESS:  cpu time   51.2782: real time   51.3802
    FORCOR:  cpu time   20.9588: real time   20.9986
    FORHAR:  cpu time    7.2659: real time    7.2781
    MIXING:  cpu time    0.7889: real time    0.7904
    OFIELD:  cpu time    0.0000: real time    0.0000

  FORCE on cell =-STRESS in cart. coord.  units (eV):
  Direction    XX          YY          ZZ          XY          YZ          ZX
  --------------------------------------------------------------------------------------
  Alpha Z     0.04144     0.04144     0.04144
  Ewald     455.65930   110.19583   124.43778   112.14399    73.47455   121.38551
  Hartree   536.56897   314.40425   319.77134    53.73285    28.51402    57.68832
  E(xc)     -59.49719   -60.08032   -60.03428     0.32673     0.23582     0.35740
  Local   -1150.75373  -589.99357  -608.12805  -159.03078   -94.71782  -171.55379
  n-local   -25.14256   -25.80903   -26.07901    -2.43445    -1.42031    -2.69847
  augment     0.51652     0.37362     0.35606     0.09821    -0.07094     0.09373
  Kinetic   245.58593   249.64970   248.32916    -3.43194    -6.27113    -3.74008
  Fock        0.00000     0.00000     0.00000     0.00000     0.00000     0.00000
  -------------------------------------------------------------------------------------
  Total       2.97869    -1.21808    -1.30555     1.40462    -0.25580     1.53262
  in kB       0.17676    -0.07228    -0.07747     0.08335    -0.01518     0.09095
  external pressure =        0.01 kB  Pullay stress =        0.00 kB


 VOLUME and BASIS-vectors are now :
 -----------------------------------------------------------------------------
  energy-cutoff  :      400.00
  volume of cell :    27000.00
      direct lattice vectors                 reciprocal lattice vectors
    30.000000000  0.000000000  0.000000000     0.033333333  0.000000000  0.000000000
     0.000000000 30.000000000  0.000000000     0.000000000  0.033333333  0.000000000
     0.000000000  0.000000000 30.000000000     0.000000000  0.000000000  0.033333333

  length of vectors
    30.000000000 30.000000000 30.000000000     0.033333333  0.033333333  0.033333333


 FORCES acting on ions
    electron-ion (+dipol)            ewald-force                    non-local-force                 convergence-correction
 -----------------------------------------------------------------------------------------------
   0.329E+02 0.555E+02 -.139E+02   -.354E+02 -.609E+02 0.152E+02   0.197E+01 0.520E+01 -.154E+01   -.276E-05 -.420E-05 -.707E-06
   0.335E+02 -.201E+02 0.532E+02   -.360E+02 0.219E+02 -.584E+02   0.203E+01 -.212E+01 0.496E+01   -.188E-05 0.893E-06 -.469E-05
   0.302E+02 -.382E+02 -.433E+02   -.314E+02 0.416E+02 0.471E+02   0.112E+01 -.362E+01 -.408E+01   -.228E-05 0.372E-05 0.291E-05
   0.104E+03 0.120E+02 0.124E+02   -.109E+03 -.117E+02 -.121E+02   0.521E+01 -.490E+00 -.598E+00   -.562E-05 -.346E-05 -.111E-04
   -.909E+00 0.108E+03 0.120E+03   -.679E+00 -.111E+03 -.124E+03   0.637E+00 0.507E+01 0.566E+01   0.987E-05 0.148E-05 -.522E-05
   -.189E+03 -.100E+03 -.110E+03   0.213E+03 0.120E+03 0.133E+03   -.222E+02 -.206E+02 -.228E+02   -.672E-05 0.978E-05 0.280E-05
 -----------------------------------------------------------------------------------------------
   0.112E+02 0.165E+02 0.184E+02   0.000E+00 0.000E+00 0.000E+00   -.112E+02 -.165E+02 -.184E+02   -.939E-05 0.820E-05 -.160E-04
 
 
 POSITION                                       TOTAL-FORCE (eV/Angst)
 -----------------------------------------------------------------------------------
     14.16659     13.91610     15.16741        -0.449482     -0.208914     -0.268301
     14.15596     15.28535     13.95069        -0.448128     -0.248026     -0.232710
     14.31940     15.61698     15.70122        -0.107067     -0.248617     -0.277158
     14.54504     14.89877     14.89124        -0.258968     -0.247984     -0.272679
     16.01850     14.84858     14.82101        -0.948484      1.229801      1.384625
     16.79517     15.43388     15.46782         2.212130     -0.276261     -0.333776
 -----------------------------------------------------------------------------------
    total drift:                               -0.009672     -0.001416     -0.002484


--------------------------------------------------------------------------------------------------------



  FREE ENERGIE OF THE ION-ELECTRON SYSTEM (eV)
  ---------------------------------------------------
  free  energy   TOTEN  =       -35.71900138 eV

  energy  without entropy=      -35.71900138  energy(sigma->0) =      -35.71900138
 
 d Force = 0.1145005E-03[ 0.114E-03, 0.115E-03]  d Energy = 0.1144937E-03 0.677E-08
 d Force = 0.4324793E-02[ 0.432E-02, 0.432E-02]  d Ewald  = 0.4324793E-02-0.215E-10


--------------------------------------------------------------------------------------------------------


    POTLOK:  cpu time   20.3399: real time   20.3782


--------------------------------------------------------------------------------------------------------


 NEB: the previous image is higher in energy: T
 NEB: the next image is higher in energy    : F
 NEB: only prev energy greater

 NEB: Tangent
 ----------------------------------------------
     -0.13944     -0.06471     -0.08386
     -0.13845     -0.07656     -0.07245
     -0.03358     -0.07721     -0.08596
     -0.08012     -0.07679     -0.08481
     -0.29490      0.38070      0.42915
      0.68650     -0.08544     -0.10206

 NEB: forces: par spring, perp REAL, dneb     0.006205    0.006972    0.000000
 NEB: distance to prev, next image, angle between     0.249738    0.250979  160.700636
 NEB: projections on to tangent (spring, REAL)     0.006205    3.224527

 stress matrix after NEB project (eV)
      2.97869      1.40462      1.53262
      1.40462     -1.21808     -0.25580
      1.53262     -0.25580     -1.30555
  FORCES: max atom, RMS     0.006112    0.003810
  FORCE total and by dimension    0.009333    0.005309
  Stress total and by dimension    4.564578    2.978690
 OPT: skip step - force has converged


--------------------------------------------------------------------------------------------------------


  
 reached required accuracy - stopping structural energy minimisation
     LOOP+:  cpu time  579.6069: real time  580.8465
    4ORBIT:  cpu time    0.0000: real time    0.0000

 total amount of memory used by VASP on root node  3203887. kBytes
========================================================================

   base      :      30000. kBytes
   nonlr-proj:        691. kBytes
   fftplans  :     924480. kBytes
   grid      :    1872000. kBytes
   one-center:         18. kBytes
   wavefun   :     376698. kBytes
 
  
  
 General timing and accounting informations for this job:
 ========================================================
  
                  Total CPU time used (sec):    49638.777
                            User time (sec):    48960.540
                          System time (sec):      678.239
                         Elapsed time (sec):    49851.798
  
                   Maximum memory used (kb):     4781396.
                   Average memory used (kb):           0.
  
                          Minor page faults:      7370446
                          Major page faults:            7
                 Voluntary context switches:         9352
