 vasp.5.4.1 24Jun15 (build Jan 13 2020 12:58:22) complex                        
  
 POSCAR found type information on POSCAR  H  C  N 
 11/POSCAR found :  3 types and       6 ions
 scaLAPACK will be used

 ----------------------------------------------------------------------------- 
|                                                                             |
|  ADVICE TO THIS USER RUNNING 'VASP/VAMP'   (HEAR YOUR MASTER'S VOICE ...):  |
|                                                                             |
|      You have a (more or less) 'small supercell' and for smaller cells      |
|      it is recommended  to use the reciprocal-space projection scheme!      |
|      The real space optimization is not  efficient for small cells and it   |
|      is also less accurate ...                                              |
|      Therefore set LREAL=.FALSE. in the  INCAR file                         |
|                                                                             |
 ----------------------------------------------------------------------------- 

 LDA part: xc-table for Pade appr. of Perdew
 POSCAR found type information on POSCAR  H  C  N 
 00/POSCAR found :  3 types and       6 ions
 POSCAR found type information on POSCAR  H  C  N 
 16/POSCAR found :  3 types and       6 ions
 Jacobian:    40.4401846379183     
 POSCAR, INCAR and KPOINTS ok, starting setup
 WARNING: small aliasing (wrap around) errors must be expected
 FFT: planning ...
 WAVECAR not read
 entering main loop
       N       E                     dE             d eps       ncg     rms          rms(c)
DAV:   1     0.114459742418E+03    0.11446E+03   -0.21324E+03   160   0.366E+02
DAV:   2    -0.172726783051E+01   -0.11619E+03   -0.11350E+03   192   0.105E+02
DAV:   3    -0.366815811641E+02   -0.34954E+02   -0.34496E+02   128   0.967E+01
DAV:   4    -0.396975586468E+02   -0.30160E+01   -0.29353E+01   100   0.303E+01
DAV:   5    -0.397803255900E+02   -0.82767E-01   -0.82520E-01   160   0.506E+00    0.110E+01
DAV:   6    -0.365364250765E+02    0.32439E+01   -0.63207E+00   116   0.180E+01    0.615E+00
DAV:   7    -0.359106865632E+02    0.62574E+00   -0.16281E+00   112   0.968E+00    0.328E+00
DAV:   8    -0.357096449720E+02    0.20104E+00   -0.46730E-01   128   0.570E+00    0.128E+00
DAV:   9    -0.356806207871E+02    0.29024E-01   -0.54153E-02   128   0.188E+00    0.380E-01
DAV:  10    -0.356770357028E+02    0.35851E-02   -0.52870E-03   124   0.653E-01    0.156E-01
DAV:  11    -0.356776025330E+02   -0.56683E-03   -0.21470E-03    96   0.351E-01    0.908E-02
DAV:  12    -0.356822597531E+02   -0.46572E-02   -0.23848E-03   112   0.410E-01    0.456E-02
DAV:  13    -0.356863054124E+02   -0.40457E-02   -0.15223E-03   144   0.242E-01    0.333E-02
DAV:  14    -0.356908407653E+02   -0.45354E-02   -0.66730E-04   120   0.161E-01    0.263E-02
DAV:  15    -0.356931530223E+02   -0.23123E-02   -0.21781E-04   128   0.878E-02    0.134E-02
DAV:  16    -0.356951227898E+02   -0.19698E-02   -0.18436E-04   128   0.772E-02    0.928E-03
DAV:  17    -0.356964916871E+02   -0.13689E-02   -0.79386E-05    96   0.518E-02    0.376E-03
DAV:  18    -0.356969322344E+02   -0.44055E-03   -0.41158E-05    96   0.317E-02    0.258E-03
DAV:  19    -0.356972376037E+02   -0.30537E-03   -0.21134E-05    84   0.220E-02    0.123E-03
DAV:  20    -0.356973417354E+02   -0.10413E-03   -0.63933E-06    96   0.145E-02    0.767E-04
DAV:  21    -0.356973861599E+02   -0.44424E-04   -0.23727E-06    68   0.701E-03
   1 F= -.35697386E+02 E0= -.35697386E+02  d E =-.356974E+02
damped:  g(F)=  0.000E+00 g(S)=  0.000E+00 dE (1.order)= 0.000E+00
 bond charge predicted
       N       E                     dE             d eps       ncg     rms          rms(c)
DAV:   1    -0.356976059469E+02   -0.26421E-03   -0.15934E-05    80   0.372E-02    0.142E-03
DAV:   2    -0.356976112274E+02   -0.52805E-05   -0.96791E-07    96   0.941E-03    0.763E-04
DAV:   3    -0.356976148325E+02   -0.36051E-05   -0.15216E-07    88   0.327E-03    0.536E-04
DAV:   4    -0.356976209484E+02   -0.61159E-05   -0.50810E-08    64   0.180E-03    0.190E-04
DAV:   5    -0.356976239665E+02   -0.30181E-05   -0.16244E-08    92   0.927E-04    0.122E-04
DAV:   6    -0.356976278034E+02   -0.38370E-05   -0.64149E-09    64   0.566E-04
   2 F= -.35697628E+02 E0= -.35697628E+02  d E =-.241644E-03
damped:  g(F)=  0.000E+00 g(S)=  0.000E+00 dE (1.order)= 0.000E+00
 bond charge predicted
       N       E                     dE             d eps       ncg     rms          rms(c)
DAV:   1    -0.356980069761E+02   -0.38301E-03   -0.40199E-05    68   0.579E-02    0.190E-03
DAV:   2    -0.356980075837E+02   -0.60769E-06   -0.15809E-06    48   0.124E-02    0.103E-03
DAV:   3    -0.356980082818E+02   -0.69809E-06   -0.19025E-07    88   0.376E-03    0.376E-04
DAV:   4    -0.356980087762E+02   -0.49431E-06   -0.48532E-08    64   0.171E-03    0.181E-04
DAV:   5    -0.356980091790E+02   -0.40285E-06   -0.17997E-08    60   0.812E-04    0.957E-05
DAV:   6    -0.356980095782E+02   -0.39915E-06   -0.11049E-08    96   0.481E-04
   3 F= -.35698010E+02 E0= -.35698010E+02  d E =-.381775E-03
damped:  g(F)=  0.000E+00 g(S)=  0.000E+00 dE (1.order)= 0.000E+00
 bond charge predicted
       N       E                     dE             d eps       ncg     rms          rms(c)
DAV:   1    -0.356985707976E+02   -0.56162E-03   -0.78848E-05    48   0.814E-02    0.275E-03
DAV:   2    -0.356985710749E+02   -0.27730E-06   -0.29521E-06    48   0.174E-02    0.135E-03
DAV:   3    -0.356985712494E+02   -0.17448E-06   -0.37183E-07    48   0.532E-03    0.681E-04
DAV:   4    -0.356985713885E+02   -0.13911E-06   -0.90284E-08    52   0.238E-03    0.230E-04
DAV:   5    -0.356985714738E+02   -0.85325E-07   -0.28657E-08    48   0.110E-03    0.119E-04
DAV:   6    -0.356985715619E+02   -0.88093E-07   -0.10477E-08    72   0.620E-04
   4 F= -.35698572E+02 E0= -.35698572E+02  d E =-.561984E-03
damped:  g(F)=  0.000E+00 g(S)=  0.000E+00 dE (1.order)= 0.000E+00
 bond charge predicted
       N       E                     dE             d eps       ncg     rms          rms(c)
DAV:   1    -0.356993038496E+02   -0.73238E-03   -0.13817E-04    96   0.107E-01    0.376E-03
DAV:   2    -0.356993036869E+02    0.16264E-06   -0.12383E-06    64   0.110E-02    0.193E-03
DAV:   3    -0.356993037325E+02   -0.45590E-07   -0.20540E-07    48   0.419E-03    0.104E-03
DAV:   4    -0.356993038014E+02   -0.68896E-07   -0.69671E-08    64   0.231E-03    0.258E-04
DAV:   5    -0.356993038122E+02   -0.10766E-07   -0.18531E-08    48   0.981E-04    0.133E-04
DAV:   6    -0.356993038272E+02   -0.15031E-07   -0.99906E-09    48   0.446E-04
   5 F= -.35699304E+02 E0= -.35699304E+02  d E =-.732265E-03
damped:  g(F)=  0.000E+00 g(S)=  0.000E+00 dE (1.order)= 0.000E+00
 bond charge predicted
       N       E                     dE             d eps       ncg     rms          rms(c)
DAV:   1    -0.357001896949E+02   -0.88588E-03   -0.19879E-04    96   0.128E-01    0.417E-03
DAV:   2    -0.357001894664E+02    0.22851E-06   -0.16359E-06    64   0.112E-02    0.230E-03
DAV:   3    -0.357001895332E+02   -0.66814E-07   -0.29464E-07    48   0.468E-03    0.807E-04
DAV:   4    -0.357001895499E+02   -0.16684E-07   -0.79867E-08    48   0.230E-03    0.295E-04
DAV:   5    -0.357001895543E+02   -0.44030E-08   -0.28672E-08    48   0.101E-03    0.133E-04
DAV:   6    -0.357001895649E+02   -0.10593E-07   -0.19479E-08    48   0.605E-04
   6 F= -.35700190E+02 E0= -.35700190E+02  d E =-.885738E-03
damped:  g(F)=  0.000E+00 g(S)=  0.000E+00 dE (1.order)= 0.000E+00
 bond charge predicted
       N       E                     dE             d eps       ncg     rms          rms(c)
DAV:   1    -0.357012164412E+02   -0.10269E-02   -0.25911E-04    96   0.147E-01    0.503E-03
DAV:   2    -0.357012160288E+02    0.41245E-06   -0.21190E-06    64   0.142E-02    0.259E-03
DAV:   3    -0.357012160876E+02   -0.58819E-07   -0.36023E-07    48   0.538E-03    0.134E-03
DAV:   4    -0.357012161577E+02   -0.70057E-07   -0.11688E-07    48   0.286E-03    0.302E-04
DAV:   5    -0.357012161637E+02   -0.60709E-08   -0.36952E-08    48   0.120E-03    0.154E-04
DAV:   6    -0.357012161789E+02   -0.15124E-07   -0.21090E-08    48   0.572E-04
   7 F= -.35701216E+02 E0= -.35701216E+02  d E =-.102661E-02
damped:  g(F)=  0.000E+00 g(S)=  0.000E+00 dE (1.order)= 0.000E+00
 bond charge predicted
       N       E                     dE             d eps       ncg     rms          rms(c)
DAV:   1    -0.357025447433E+02   -0.13286E-02   -0.42850E-04    96   0.188E-01    0.625E-03
DAV:   2    -0.357025441760E+02    0.56724E-06   -0.32860E-06    64   0.171E-02    0.326E-03
DAV:   3    -0.357025442915E+02   -0.11541E-06   -0.54042E-07    48   0.647E-03    0.154E-03
DAV:   4    -0.357025443797E+02   -0.88237E-07   -0.15260E-07    48   0.329E-03    0.336E-04
DAV:   5    -0.357025443888E+02   -0.91484E-08   -0.47062E-08    48   0.137E-03    0.164E-04
DAV:   6    -0.357025444093E+02   -0.20483E-07   -0.25054E-08    48   0.725E-04
   8 F= -.35702544E+02 E0= -.35702544E+02  d E =-.132823E-02
damped:  g(F)=  0.000E+00 g(S)=  0.000E+00 dE (1.order)= 0.000E+00
 bond charge predicted
       N       E                     dE             d eps       ncg     rms          rms(c)
DAV:   1    -0.357042139843E+02   -0.16696E-02   -0.69703E-04    96   0.239E-01    0.783E-03
DAV:   2    -0.357042132110E+02    0.77330E-06   -0.54149E-06    64   0.210E-02    0.420E-03
DAV:   3    -0.357042134093E+02   -0.19825E-06   -0.87878E-07    52   0.819E-03    0.171E-03
DAV:   4    -0.357042135071E+02   -0.97823E-07   -0.22819E-07    48   0.410E-03    0.463E-04
DAV:   5    -0.357042135244E+02   -0.17305E-07   -0.65604E-08    48   0.175E-03    0.218E-04
DAV:   6    -0.357042135577E+02   -0.33290E-07   -0.31583E-08    48   0.100E-03
   9 F= -.35704214E+02 E0= -.35704214E+02  d E =-.166915E-02
damped:  g(F)=  0.000E+00 g(S)=  0.000E+00 dE (1.order)= 0.000E+00
 bond charge predicted
       N       E                     dE             d eps       ncg     rms          rms(c)
DAV:   1    -0.357059563299E+02   -0.17428E-02   -0.96565E-04    96   0.285E-01    0.106E-02
DAV:   2    -0.357059545980E+02    0.17319E-05   -0.10837E-05    64   0.326E-02    0.550E-03
DAV:   3    -0.357059545925E+02    0.54806E-08   -0.17220E-06    64   0.127E-02    0.316E-03
DAV:   4    -0.357059548691E+02   -0.27662E-06   -0.74265E-07    48   0.771E-03    0.926E-04
DAV:   5    -0.357059549008E+02   -0.31634E-07   -0.14512E-07    48   0.328E-03    0.468E-04
DAV:   6    -0.357059549512E+02   -0.50423E-07   -0.37410E-08    48   0.141E-03
  10 F= -.35705955E+02 E0= -.35705955E+02  d E =-.174139E-02
damped:  g(F)=  0.000E+00 g(S)=  0.000E+00 dE (1.order)= 0.000E+00
 bond charge predicted
       N       E                     dE             d eps       ncg     rms          rms(c)
DAV:   1    -0.357059231715E+02    0.31729E-04   -0.10502E-04    48   0.952E-02    0.481E-03
DAV:   2    -0.357059231843E+02   -0.12733E-07   -0.48507E-06    64   0.224E-02    0.253E-03
DAV:   3    -0.357059231047E+02    0.79559E-07   -0.46913E-07    48   0.699E-03    0.148E-03
DAV:   4    -0.357059231600E+02   -0.55331E-07   -0.34617E-07    48   0.547E-03    0.460E-04
DAV:   5    -0.357059231988E+02   -0.38785E-07   -0.66089E-08    48   0.234E-03    0.331E-04
DAV:   6    -0.357059232525E+02   -0.53708E-07   -0.20130E-08    48   0.943E-04
  11 F= -.35705923E+02 E0= -.35705923E+02  d E =0.316986E-04
damped:  g(F)=  0.000E+00 g(S)=  0.000E+00 dE (1.order)= 0.000E+00
 bond charge predicted
       N       E                     dE             d eps       ncg     rms          rms(c)
DAV:   1    -0.357059254136E+02   -0.22148E-05   -0.54635E-07    48   0.666E-03    0.198E-04
DAV:   2    -0.357059254466E+02   -0.32999E-07   -0.37809E-08    48   0.156E-03    0.124E-04
DAV:   3    -0.357059254758E+02   -0.29184E-07   -0.15800E-08    48   0.466E-04    0.818E-05
DAV:   4    -0.357059255255E+02   -0.49683E-07   -0.14562E-08    48   0.263E-04    0.255E-05
DAV:   5    -0.357059255500E+02   -0.24466E-07   -0.14209E-08    48   0.139E-04    0.186E-05
DAV:   6    -0.357059255815E+02   -0.31565E-07   -0.14498E-08    48   0.901E-05
  12 F= -.35705926E+02 E0= -.35705926E+02  d E =-.232899E-05
damped:  g(F)=  0.000E+00 g(S)=  0.000E+00 dE (1.order)= 0.000E+00
 bond charge predicted
       N       E                     dE             d eps       ncg     rms          rms(c)
DAV:   1    -0.357059288966E+02   -0.33466E-05   -0.16346E-06    48   0.114E-02    0.284E-04
DAV:   2    -0.357059289144E+02   -0.17801E-07   -0.90861E-08    48   0.270E-03    0.180E-04
DAV:   3    -0.357059289267E+02   -0.12301E-07   -0.23629E-08    48   0.789E-04    0.103E-04
DAV:   4    -0.357059289399E+02   -0.13198E-07   -0.18217E-08    48   0.402E-04    0.338E-05
DAV:   5    -0.357059289449E+02   -0.50668E-08   -0.17025E-08    48   0.189E-04    0.250E-05
DAV:   6    -0.357059289517E+02   -0.67854E-08   -0.17064E-08    48   0.101E-04
  13 F= -.35705929E+02 E0= -.35705929E+02  d E =-.337017E-05
damped:  g(F)=  0.000E+00 g(S)=  0.000E+00 dE (1.order)= 0.000E+00
 bond charge predicted
       N       E                     dE             d eps       ncg     rms          rms(c)
DAV:   1    -0.357059338899E+02   -0.49450E-05   -0.32984E-06    48   0.162E-02    0.379E-04
DAV:   2    -0.357059339057E+02   -0.15803E-07   -0.16870E-07    48   0.383E-03    0.237E-04
DAV:   3    -0.357059339113E+02   -0.55693E-08   -0.33805E-08    48   0.110E-03    0.118E-04
DAV:   4    -0.357059339142E+02   -0.28596E-08   -0.21762E-08    48   0.517E-04    0.363E-05
DAV:   5    -0.357059339144E+02   -0.23238E-09   -0.19260E-08    48   0.243E-04    0.277E-05
DAV:   6    -0.357059339153E+02   -0.92223E-09   -0.18717E-08    48   0.134E-04
  14 F= -.35705934E+02 E0= -.35705934E+02  d E =-.496362E-05
damped:  g(F)=  0.000E+00 g(S)=  0.000E+00 dE (1.order)= 0.000E+00
 bond charge predicted
       N       E                     dE             d eps       ncg     rms          rms(c)
DAV:   1    -0.357059412459E+02   -0.73315E-05   -0.55976E-06    48   0.212E-02    0.489E-04
DAV:   2    -0.357059412685E+02   -0.22568E-07   -0.27525E-07    48   0.499E-03    0.303E-04
DAV:   3    -0.357059412738E+02   -0.53496E-08   -0.46526E-08    48   0.143E-03    0.151E-04
DAV:   4    -0.357059412753E+02   -0.14602E-08   -0.25397E-08    48   0.661E-04    0.427E-05
DAV:   5    -0.357059412750E+02    0.28172E-09   -0.20923E-08    48   0.312E-04    0.337E-05
DAV:   6    -0.357059412751E+02   -0.92086E-10   -0.19594E-08    48   0.173E-04
  15 F= -.35705941E+02 E0= -.35705941E+02  d E =-.735976E-05
damped:  g(F)=  0.000E+00 g(S)=  0.000E+00 dE (1.order)= 0.000E+00
 bond charge predicted
       N       E                     dE             d eps       ncg     rms          rms(c)
DAV:   1    -0.357059519984E+02   -0.10723E-04   -0.85692E-06    48   0.263E-02    0.608E-04
DAV:   2    -0.357059520311E+02   -0.32743E-07   -0.41201E-07    48   0.618E-03    0.375E-04
DAV:   3    -0.357059520377E+02   -0.65618E-08   -0.62257E-08    48   0.177E-03    0.194E-04
DAV:   4    -0.357059520397E+02   -0.20043E-08   -0.29438E-08    48   0.822E-04    0.538E-05
DAV:   5    -0.357059520396E+02    0.40927E-10   -0.22447E-08    48   0.388E-04    0.425E-05
DAV:   6    -0.357059520393E+02    0.36380E-09   -0.20318E-08    48   0.215E-04
  16 F= -.35705952E+02 E0= -.35705952E+02  d E =-.107642E-04
damped:  g(F)=  0.000E+00 g(S)=  0.000E+00 dE (1.order)= 0.000E+00
 bond charge predicted
       N       E                     dE             d eps       ncg     rms          rms(c)
DAV:   1    -0.357059673325E+02   -0.15293E-04   -0.12197E-05    48   0.314E-02    0.727E-04
DAV:   2    -0.357059673782E+02   -0.45700E-07   -0.57840E-07    48   0.738E-03    0.450E-04
DAV:   3    -0.357059673875E+02   -0.92834E-08   -0.80830E-08    48   0.212E-03    0.235E-04
DAV:   4    -0.357059673900E+02   -0.25314E-08   -0.33960E-08    48   0.983E-04    0.648E-05
DAV:   5    -0.357059673901E+02   -0.32742E-10   -0.23988E-08    48   0.465E-04    0.510E-05
DAV:   6    -0.357059673898E+02    0.21464E-09   -0.20903E-08    48   0.257E-04
  17 F= -.35705967E+02 E0= -.35705967E+02  d E =-.153506E-04
damped:  g(F)=  0.000E+00 g(S)=  0.000E+00 dE (1.order)= 0.000E+00
 bond charge predicted
       N       E                     dE             d eps       ncg     rms          rms(c)
DAV:   1    -0.357059912897E+02   -0.23900E-04   -0.20426E-05    48   0.406E-02    0.939E-04
DAV:   2    -0.357059913662E+02   -0.76538E-07   -0.95417E-07    48   0.954E-03    0.582E-04
DAV:   3    -0.357059913817E+02   -0.15499E-07   -0.12169E-07    48   0.273E-03    0.298E-04
DAV:   4    -0.357059913857E+02   -0.40347E-08   -0.43712E-08    48   0.127E-03    0.821E-05
DAV:   5    -0.357059913858E+02   -0.93451E-10   -0.27150E-08    48   0.598E-04    0.651E-05
DAV:   6    -0.357059913854E+02    0.39836E-09   -0.22048E-08    48   0.332E-04
  18 F= -.35705991E+02 E0= -.35705991E+02  d E =-.239956E-04
damped:  g(F)=  0.000E+00 g(S)=  0.000E+00 dE (1.order)= 0.000E+00
 bond charge predicted
       N       E                     dE             d eps       ncg     rms          rms(c)
DAV:   1    -0.357060283308E+02   -0.36945E-04   -0.33322E-05    48   0.518E-02    0.119E-03
DAV:   2    -0.357060284567E+02   -0.12584E-06   -0.15424E-06    48   0.122E-02    0.742E-04
DAV:   3    -0.357060284828E+02   -0.26106E-07   -0.18493E-07    48   0.347E-03    0.366E-04
DAV:   4    -0.357060284887E+02   -0.59312E-08   -0.58741E-08    48   0.160E-03    0.102E-04
DAV:   5    -0.357060284890E+02   -0.27012E-09   -0.31972E-08    48   0.758E-04    0.810E-05
DAV:   6    -0.357060284884E+02    0.59447E-09   -0.23731E-08    48   0.422E-04
  19 F= -.35706028E+02 E0= -.35706028E+02  d E =-.371029E-04
damped:  g(F)=  0.000E+00 g(S)=  0.000E+00 dE (1.order)= 0.000E+00
 bond charge predicted
       N       E                     dE             d eps       ncg     rms          rms(c)
DAV:   1    -0.357060848212E+02   -0.56332E-04   -0.53228E-05    48   0.654E-02    0.150E-03
DAV:   2    -0.357060850235E+02   -0.20234E-06   -0.24507E-06    48   0.154E-02    0.938E-04
DAV:   3    -0.357060850654E+02   -0.41862E-07   -0.28233E-07    48   0.437E-03    0.449E-04
DAV:   4    -0.357060850749E+02   -0.95379E-08   -0.81897E-08    48   0.202E-03    0.126E-04
DAV:   5    -0.357060850752E+02   -0.31196E-09   -0.39488E-08    48   0.954E-04    0.100E-04
DAV:   6    -0.357060850741E+02    0.10880E-08   -0.26303E-08    48   0.532E-04
  20 F= -.35706085E+02 E0= -.35706085E+02  d E =-.565857E-04
damped:  g(F)=  0.000E+00 g(S)=  0.000E+00 dE (1.order)= 0.000E+00
 bond charge predicted
       N       E                     dE             d eps       ncg     rms          rms(c)
DAV:   1    -0.357061701373E+02   -0.85062E-04   -0.83164E-05    48   0.817E-02    0.188E-03
DAV:   2    -0.357061704533E+02   -0.31603E-06   -0.38115E-06    48   0.192E-02    0.117E-03
DAV:   3    -0.357061705183E+02   -0.64922E-07   -0.42759E-07    48   0.546E-03    0.551E-04
DAV:   4    -0.357061705324E+02   -0.14188E-07   -0.11649E-07    48   0.251E-03    0.156E-04
DAV:   5    -0.357061705329E+02   -0.42883E-09   -0.50537E-08    48   0.119E-03    0.124E-04
DAV:   6    -0.357061705313E+02    0.15455E-08   -0.30017E-08    48   0.664E-04
  21 F= -.35706171E+02 E0= -.35706171E+02  d E =-.854572E-04
damped:  g(F)=  0.000E+00 g(S)=  0.000E+00 dE (1.order)= 0.000E+00
 bond charge predicted
       N       E                     dE             d eps       ncg     rms          rms(c)
DAV:   1    -0.357062981171E+02   -0.12758E-03   -0.13238E-04    80   0.101E-01    0.239E-03
DAV:   2    -0.357062981437E+02   -0.26598E-07   -0.14403E-06    48   0.960E-03    0.153E-03
DAV:   3    -0.357062981767E+02   -0.32921E-07   -0.19847E-07    48   0.382E-03    0.416E-04
DAV:   4    -0.357062981855E+02   -0.88281E-08   -0.68103E-08    48   0.169E-03    0.170E-04
DAV:   5    -0.357062981868E+02   -0.13083E-08   -0.33251E-08    48   0.789E-04    0.647E-05
DAV:   6    -0.357062981893E+02   -0.25379E-08   -0.25813E-08    48   0.405E-04
  22 F= -.35706298E+02 E0= -.35706298E+02  d E =-.127658E-03
damped:  g(F)=  0.000E+00 g(S)=  0.000E+00 dE (1.order)= 0.000E+00
 bond charge predicted
       N       E                     dE             d eps       ncg     rms          rms(c)
DAV:   1    -0.357064870439E+02   -0.18886E-03   -0.19775E-04    96   0.124E-01    0.292E-03
DAV:   2    -0.357064870837E+02   -0.39740E-07   -0.21305E-06    48   0.117E-02    0.188E-03
DAV:   3    -0.357064871339E+02   -0.50286E-07   -0.28086E-07    48   0.464E-03    0.509E-04
DAV:   4    -0.357064871481E+02   -0.14156E-07   -0.88819E-08    48   0.205E-03    0.208E-04
DAV:   5    -0.357064871512E+02   -0.30685E-08   -0.38442E-08    48   0.948E-04    0.961E-05
DAV:   6    -0.357064871554E+02   -0.42305E-08   -0.27754E-08    48   0.490E-04
  23 F= -.35706487E+02 E0= -.35706487E+02  d E =-.188966E-03
damped:  g(F)=  0.000E+00 g(S)=  0.000E+00 dE (1.order)= 0.000E+00
 bond charge predicted
       N       E                     dE             d eps       ncg     rms          rms(c)
DAV:   1    -0.357067624651E+02   -0.27531E-03   -0.28751E-04    96   0.149E-01    0.355E-03
DAV:   2    -0.357067625196E+02   -0.54452E-07   -0.30964E-06    48   0.142E-02    0.228E-03
DAV:   3    -0.357067625908E+02   -0.71244E-07   -0.39806E-07    48   0.560E-03    0.617E-04
DAV:   4    -0.357067626107E+02   -0.19937E-07   -0.11802E-07    48   0.247E-03    0.251E-04
DAV:   5    -0.357067626155E+02   -0.47689E-08   -0.45455E-08    48   0.114E-03    0.126E-04
DAV:   6    -0.357067626211E+02   -0.55527E-08   -0.30210E-08    48   0.597E-04
  24 F= -.35706763E+02 E0= -.35706763E+02  d E =-.275466E-03
damped:  g(F)=  0.000E+00 g(S)=  0.000E+00 dE (1.order)= 0.000E+00
 bond charge predicted
       N       E                     dE             d eps       ncg     rms          rms(c)
DAV:   1    -0.357071594887E+02   -0.39687E-03   -0.40117E-04    96   0.177E-01    0.424E-03
DAV:   2    -0.357071595542E+02   -0.65529E-07   -0.43185E-06    48   0.168E-02    0.271E-03
DAV:   3    -0.357071596516E+02   -0.97388E-07   -0.54447E-07    48   0.661E-03    0.741E-04
DAV:   4    -0.357071596789E+02   -0.27283E-07   -0.15299E-07    48   0.292E-03    0.300E-04
DAV:   5    -0.357071596854E+02   -0.65519E-08   -0.53295E-08    48   0.134E-03    0.161E-04
DAV:   6    -0.357071596935E+02   -0.80854E-08   -0.32335E-08    48   0.714E-04
  25 F= -.35707160E+02 E0= -.35707160E+02  d E =-.397072E-03
damped:  g(F)=  0.000E+00 g(S)=  0.000E+00 dE (1.order)= 0.000E+00
 bond charge predicted
       N       E                     dE             d eps       ncg     rms          rms(c)
DAV:   1    -0.357077257314E+02   -0.56605E-03   -0.51923E-04    96   0.201E-01    0.496E-03
DAV:   2    -0.357077257848E+02   -0.53471E-07   -0.55871E-06    48   0.193E-02    0.313E-03
DAV:   3    -0.357077259069E+02   -0.12207E-06   -0.68794E-07    48   0.744E-03    0.998E-04
DAV:   4    -0.357077259511E+02   -0.44194E-07   -0.19088E-07    48   0.345E-03    0.368E-04
DAV:   5    -0.357077259595E+02   -0.83808E-08   -0.61327E-08    48   0.157E-03    0.213E-04
DAV:   6    -0.357077259719E+02   -0.12476E-07   -0.33838E-08    48   0.818E-04
  26 F= -.35707726E+02 E0= -.35707726E+02  d E =-.566278E-03
damped:  g(F)=  0.000E+00 g(S)=  0.000E+00 dE (1.order)= 0.000E+00
 bond charge predicted
       N       E                     dE             d eps       ncg     rms          rms(c)
DAV:   1    -0.357077353262E+02   -0.93667E-05   -0.10116E-07    48   0.262E-03    0.795E-05
DAV:   2    -0.357077353410E+02   -0.14842E-07   -0.25503E-08    48   0.700E-04    0.482E-05
DAV:   3    -0.357077353603E+02   -0.19253E-07   -0.21278E-08    48   0.260E-04    0.304E-05
DAV:   4    -0.357077353887E+02   -0.28377E-07   -0.20790E-08    48   0.145E-04    0.129E-05
DAV:   5    -0.357077354122E+02   -0.23503E-07   -0.20787E-08    48   0.100E-04    0.916E-06
DAV:   6    -0.357077354601E+02   -0.47966E-07   -0.21088E-08    60   0.113E-04
  27 F= -.35707735E+02 E0= -.35707735E+02  d E =-.948819E-05
damped:  g(F)=  0.000E+00 g(S)=  0.000E+00 dE (1.order)= 0.000E+00
 bond charge predicted
       N       E                     dE             d eps       ncg     rms          rms(c)
DAV:   1    -0.357077585715E+02   -0.23159E-04   -0.35187E-07    48   0.538E-03    0.146E-04
DAV:   2    -0.357077585788E+02   -0.72998E-08   -0.35091E-08    48   0.124E-03    0.770E-05
DAV:   3    -0.357077585846E+02   -0.57649E-08   -0.21673E-08    48   0.387E-04    0.494E-05
DAV:   4    -0.357077585914E+02   -0.67537E-08   -0.19950E-08    48   0.180E-04    0.178E-05
DAV:   5    -0.357077585957E+02   -0.43017E-08   -0.19470E-08    48   0.903E-05    0.844E-06
DAV:   6    -0.357077585998E+02   -0.40887E-08   -0.19216E-08    48   0.514E-05
  28 F= -.35707759E+02 E0= -.35707759E+02  d E =-.231396E-04
damped:  g(F)=  0.000E+00 g(S)=  0.000E+00 dE (1.order)= 0.000E+00
 bond charge predicted
       N       E                     dE             d eps       ncg     rms          rms(c)
DAV:   1    -0.357077996793E+02   -0.41084E-04   -0.82980E-07    48   0.844E-03    0.240E-04
DAV:   2    -0.357077996827E+02   -0.33413E-08   -0.54978E-08    48   0.192E-03    0.124E-04
DAV:   3    -0.357077996844E+02   -0.17271E-08   -0.23660E-08    48   0.598E-04    0.798E-05
DAV:   4    -0.357077996849E+02   -0.54206E-09   -0.20025E-08    48   0.278E-04    0.285E-05
DAV:   5    -0.357077996853E+02   -0.33720E-09   -0.19198E-08    48   0.134E-04    0.131E-05
DAV:   6    -0.357077996854E+02   -0.10277E-09   -0.18911E-08    48   0.726E-05
  29 F= -.35707800E+02 E0= -.35707800E+02  d E =-.410856E-04
damped:  g(F)=  0.000E+00 g(S)=  0.000E+00 dE (1.order)= 0.000E+00
 bond charge predicted
       N       E                     dE             d eps       ncg     rms          rms(c)
DAV:   1    -0.357078620414E+02   -0.62356E-04   -0.15603E-06    48   0.117E-02    0.344E-04
DAV:   2    -0.357078620456E+02   -0.41587E-08   -0.85260E-08    48   0.262E-03    0.174E-04
DAV:   3    -0.357078620477E+02   -0.21073E-08   -0.27467E-08    48   0.820E-04    0.110E-04
DAV:   4    -0.357078620478E+02   -0.85947E-10   -0.20759E-08    48   0.380E-04    0.393E-05
DAV:   5    -0.357078620473E+02    0.45657E-09   -0.19230E-08    48   0.183E-04    0.178E-05
DAV:   6    -0.357078620472E+02    0.94587E-10   -0.18805E-08    48   0.992E-05
  30 F= -.35707862E+02 E0= -.35707862E+02  d E =-.623619E-04
damped:  g(F)=  0.000E+00 g(S)=  0.000E+00 dE (1.order)= 0.000E+00
 bond charge predicted
       N       E                     dE             d eps       ncg     rms          rms(c)
DAV:   1    -0.357079451058E+02   -0.83058E-04   -0.24476E-06    48   0.146E-02    0.442E-04
DAV:   2    -0.357079451123E+02   -0.64542E-08   -0.12112E-07    48   0.327E-03    0.221E-04
DAV:   3    -0.357079451151E+02   -0.28556E-08   -0.32105E-08    48   0.102E-03    0.136E-04
DAV:   4    -0.357079451152E+02   -0.98453E-10   -0.21657E-08    48   0.471E-04    0.481E-05
DAV:   5    -0.357079451148E+02    0.40473E-09   -0.19427E-08    48   0.226E-04    0.221E-05
DAV:   6    -0.357079451146E+02    0.21919E-09   -0.18736E-08    48   0.124E-04
  31 F= -.35707945E+02 E0= -.35707945E+02  d E =-.830674E-04
damped:  g(F)=  0.000E+00 g(S)=  0.000E+00 dE (1.order)= 0.000E+00
 bond charge predicted
       N       E                     dE             d eps       ncg     rms          rms(c)
DAV:   1    -0.357080481016E+02   -0.10299E-03   -0.33771E-06    48   0.172E-02    0.537E-04
DAV:   2    -0.357080481097E+02   -0.80113E-08   -0.15673E-07    48   0.381E-03    0.263E-04
DAV:   3    -0.357080481133E+02   -0.36798E-08   -0.36771E-08    48   0.119E-03    0.162E-04
DAV:   4    -0.357080481139E+02   -0.59072E-09   -0.22620E-08    48   0.549E-04    0.579E-05
DAV:   5    -0.357080481134E+02    0.54365E-09   -0.19575E-08    48   0.263E-04    0.259E-05
DAV:   6    -0.357080481132E+02    0.19531E-09   -0.18680E-08    48   0.143E-04
  32 F= -.35708048E+02 E0= -.35708048E+02  d E =-.102999E-03
damped:  g(F)=  0.000E+00 g(S)=  0.000E+00 dE (1.order)= 0.000E+00
 bond charge predicted
       N       E                     dE             d eps       ncg     rms          rms(c)
DAV:   1    -0.357081847537E+02   -0.13664E-03   -0.52822E-06    48   0.215E-02    0.688E-04
DAV:   2    -0.357081847644E+02   -0.10693E-07   -0.22743E-07    48   0.468E-03    0.334E-04
DAV:   3    -0.357081847701E+02   -0.57159E-08   -0.45761E-08    48   0.146E-03    0.198E-04
DAV:   4    -0.357081847710E+02   -0.92541E-09   -0.24528E-08    48   0.669E-04    0.684E-05
DAV:   5    -0.357081847705E+02    0.55752E-09   -0.19971E-08    48   0.316E-04    0.316E-05
DAV:   6    -0.357081847702E+02    0.23715E-09   -0.18679E-08    48   0.174E-04
  33 F= -.35708185E+02 E0= -.35708185E+02  d E =-.136657E-03
damped:  g(F)=  0.000E+00 g(S)=  0.000E+00 dE (1.order)= 0.000E+00
 bond charge predicted
       N       E                     dE             d eps       ncg     rms          rms(c)
DAV:   1    -0.357083575609E+02   -0.17279E-03   -0.76064E-06    48   0.256E-02    0.843E-04
DAV:   2    -0.357083575732E+02   -0.12380E-07   -0.30640E-07    48   0.547E-03    0.410E-04
DAV:   3    -0.357083575813E+02   -0.80527E-08   -0.54996E-08    48   0.169E-03    0.221E-04
DAV:   4    -0.357083575823E+02   -0.10559E-08   -0.26571E-08    48   0.767E-04    0.735E-05
DAV:   5    -0.357083575815E+02    0.85834E-09   -0.20422E-08    48   0.357E-04    0.368E-05
DAV:   6    -0.357083575814E+02    0.85947E-10   -0.18683E-08    48   0.200E-04
  34 F= -.35708358E+02 E0= -.35708358E+02  d E =-.172811E-03
damped:  g(F)=  0.000E+00 g(S)=  0.000E+00 dE (1.order)= 0.000E+00
 bond charge predicted
       N       E                     dE             d eps       ncg     rms          rms(c)
DAV:   1    -0.357085627884E+02   -0.20521E-03   -0.10411E-05    48   0.296E-02    0.101E-03
DAV:   2    -0.357085628034E+02   -0.15091E-07   -0.39939E-07    48   0.629E-03    0.492E-04
DAV:   3    -0.357085628141E+02   -0.10637E-07   -0.64203E-08    48   0.191E-03    0.240E-04
DAV:   4    -0.357085628153E+02   -0.12524E-08   -0.28480E-08    48   0.852E-04    0.775E-05
DAV:   5    -0.357085628145E+02    0.78671E-09   -0.20800E-08    48   0.391E-04    0.418E-05
DAV:   6    -0.357085628142E+02    0.30445E-09   -0.18647E-08    48   0.219E-04
  35 F= -.35708563E+02 E0= -.35708563E+02  d E =-.205233E-03
damped:  g(F)=  0.000E+00 g(S)=  0.000E+00 dE (1.order)= 0.000E+00
 bond charge predicted
       N       E                     dE             d eps       ncg     rms          rms(c)
DAV:   1    -0.357087967394E+02   -0.23392E-03   -0.16200E-05    48   0.368E-02    0.122E-03
DAV:   2    -0.357087967690E+02   -0.29554E-07   -0.63290E-07    48   0.803E-03    0.621E-04
DAV:   3    -0.357087967856E+02   -0.16652E-07   -0.87763E-08    48   0.239E-03    0.285E-04
DAV:   4    -0.357087967879E+02   -0.23181E-08   -0.33737E-08    48   0.105E-03    0.906E-05
DAV:   5    -0.357087967867E+02    0.12462E-08   -0.22343E-08    48   0.484E-04    0.533E-05
DAV:   6    -0.357087967862E+02    0.46043E-09   -0.19098E-08    48   0.269E-04
  36 F= -.35708797E+02 E0= -.35708797E+02  d E =-.233972E-03
damped:  g(F)=  0.000E+00 g(S)=  0.000E+00 dE (1.order)= 0.000E+00
 bond charge predicted
       N       E                     dE             d eps       ncg     rms          rms(c)
DAV:   1    -0.357090581559E+02   -0.26137E-03   -0.34182E-05    48   0.536E-02    0.160E-03
DAV:   2    -0.357090582456E+02   -0.89631E-07   -0.14352E-06    48   0.122E-02    0.886E-04
DAV:   3    -0.357090582787E+02   -0.33129E-07   -0.17111E-07    48   0.355E-03    0.403E-04
DAV:   4    -0.357090582841E+02   -0.54338E-08   -0.53054E-08    48   0.159E-03    0.134E-04
DAV:   5    -0.357090582831E+02    0.10202E-08   -0.28373E-08    48   0.751E-04    0.847E-05
DAV:   6    -0.357090582822E+02    0.88971E-09   -0.21070E-08    48   0.420E-04
  37 F= -.35709058E+02 E0= -.35709058E+02  d E =-.261496E-03
damped:  g(F)=  0.000E+00 g(S)=  0.000E+00 dE (1.order)= 0.000E+00
 bond charge predicted
       N       E                     dE             d eps       ncg     rms          rms(c)
DAV:   1    -0.357093471474E+02   -0.28886E-03   -0.89957E-05    48   0.871E-02    0.233E-03
DAV:   2    -0.357093474388E+02   -0.29145E-06   -0.39851E-06    48   0.201E-02    0.138E-03
DAV:   3    -0.357093475198E+02   -0.80990E-07   -0.44222E-07    48   0.583E-03    0.585E-04
DAV:   4    -0.357093475338E+02   -0.13972E-07   -0.11724E-07    48   0.264E-03    0.195E-04
DAV:   5    -0.357093475338E+02    0.52296E-10   -0.48028E-08    48   0.127E-03    0.134E-04
DAV:   6    -0.357093475314E+02    0.23376E-08   -0.27472E-08    48   0.718E-04
  38 F= -.35709348E+02 E0= -.35709348E+02  d E =-.289249E-03
damped:  g(F)=  0.000E+00 g(S)=  0.000E+00 dE (1.order)= 0.000E+00
 bond charge predicted
       N       E                     dE             d eps       ncg     rms          rms(c)
DAV:   1    -0.357096659560E+02   -0.31842E-03   -0.25530E-04    96   0.144E-01    0.370E-03
DAV:   2    -0.357096659650E+02   -0.89537E-08   -0.27697E-06    48   0.139E-02    0.231E-03
DAV:   3    -0.357096660408E+02   -0.75876E-07   -0.38967E-07    48   0.568E-03    0.548E-04
DAV:   4    -0.357096660539E+02   -0.13086E-07   -0.10794E-07    48   0.243E-03    0.257E-04
DAV:   5    -0.357096660564E+02   -0.24305E-08   -0.41320E-08    48   0.116E-03    0.998E-05
DAV:   6    -0.357096660607E+02   -0.43242E-08   -0.26704E-08    48   0.625E-04
  39 F= -.35709666E+02 E0= -.35709666E+02  d E =-.318529E-03
damped:  g(F)=  0.000E+00 g(S)=  0.000E+00 dE (1.order)= 0.000E+00
 bond charge predicted
       N       E                     dE             d eps       ncg     rms          rms(c)
DAV:   1    -0.357100210260E+02   -0.35497E-03   -0.66068E-04    96   0.231E-01    0.584E-03
DAV:   2    -0.357100211117E+02   -0.85656E-07   -0.71199E-06    48   0.223E-02    0.366E-03
DAV:   3    -0.357100212837E+02   -0.17201E-06   -0.94504E-07    56   0.895E-03    0.991E-04
DAV:   4    -0.357100213339E+02   -0.50241E-07   -0.24978E-07    48   0.393E-03    0.432E-04
DAV:   5    -0.357100213416E+02   -0.77205E-08   -0.74629E-08    48   0.184E-03    0.174E-04
DAV:   6    -0.357100213521E+02   -0.10445E-07   -0.38359E-08    48   0.977E-04
  40 F= -.35710021E+02 E0= -.35710021E+02  d E =-.355291E-03
damped:  g(F)=  0.000E+00 g(S)=  0.000E+00 dE (1.order)= 0.000E+00
 bond charge predicted
       N       E                     dE             d eps       ncg     rms          rms(c)
DAV:   1    -0.357103972504E+02   -0.37591E-03   -0.12704E-03    96   0.319E-01    0.804E-03
DAV:   2    -0.357103974907E+02   -0.24026E-06   -0.13699E-05    64   0.308E-02    0.502E-03
DAV:   3    -0.357103978003E+02   -0.30960E-06   -0.18056E-06    48   0.124E-02    0.140E-03
DAV:   4    -0.357103979022E+02   -0.10193E-06   -0.46802E-07    48   0.550E-03    0.606E-04
DAV:   5    -0.357103979194E+02   -0.17210E-07   -0.12499E-07    48   0.257E-03    0.236E-04
DAV:   6    -0.357103979393E+02   -0.19814E-07   -0.54554E-08    48   0.135E-03
  41 F= -.35710398E+02 E0= -.35710398E+02  d E =-.376587E-03
damped:  g(F)=  0.000E+00 g(S)=  0.000E+00 dE (1.order)= 0.000E+00
 bond charge predicted
       N       E                     dE             d eps       ncg     rms          rms(c)
DAV:   1    -0.357107650557E+02   -0.36714E-03   -0.19074E-03    96   0.391E-01    0.983E-03
DAV:   2    -0.357107654115E+02   -0.35577E-06   -0.20671E-05    64   0.379E-02    0.613E-03
DAV:   3    -0.357107658055E+02   -0.39399E-06   -0.25912E-06    48   0.147E-02    0.213E-03
DAV:   4    -0.357107660066E+02   -0.20111E-06   -0.69668E-07    48   0.689E-03    0.846E-04
DAV:   5    -0.357107660351E+02   -0.28492E-07   -0.17817E-07    48   0.313E-03    0.442E-04
DAV:   6    -0.357107660657E+02   -0.30620E-07   -0.70373E-08    48   0.164E-03
  42 F= -.35710766E+02 E0= -.35710766E+02  d E =-.368126E-03
damped:  g(F)=  0.000E+00 g(S)=  0.000E+00 dE (1.order)= 0.000E+00
 bond charge predicted
       N       E                     dE             d eps       ncg     rms          rms(c)
DAV:   1    -0.357107609849E+02    0.50502E-05   -0.32129E-07    48   0.520E-03    0.193E-04
DAV:   2    -0.357107610170E+02   -0.32159E-07   -0.37767E-08    48   0.139E-03    0.115E-04
DAV:   3    -0.357107610458E+02   -0.28786E-07   -0.20190E-08    48   0.497E-04    0.770E-05
DAV:   4    -0.357107611084E+02   -0.62559E-07   -0.19998E-08    48   0.350E-04    0.245E-05
DAV:   5    -0.357107611336E+02   -0.25277E-07   -0.19055E-08    48   0.192E-04    0.198E-05
DAV:   6    -0.357107611852E+02   -0.51601E-07   -0.20005E-08    48   0.127E-04
  43 F= -.35710761E+02 E0= -.35710761E+02  d E =0.488048E-05
damped:  g(F)=  0.000E+00 g(S)=  0.000E+00 dE (1.order)= 0.000E+00
 bond charge predicted
       N       E                     dE             d eps       ncg     rms          rms(c)
DAV:   1    -0.357107586228E+02    0.25109E-05   -0.74154E-07    52   0.811E-03    0.265E-04
DAV:   2    -0.357107586435E+02   -0.20710E-07   -0.54417E-08    48   0.189E-03    0.156E-04
DAV:   3    -0.357107586589E+02   -0.15366E-07   -0.24460E-08    48   0.577E-04    0.102E-04
DAV:   4    -0.357107586861E+02   -0.27198E-07   -0.22629E-08    48   0.376E-04    0.298E-05
DAV:   5    -0.357107586945E+02   -0.84526E-08   -0.21467E-08    48   0.174E-04    0.221E-05
DAV:   6    -0.357107587076E+02   -0.13143E-07   -0.21031E-08    48   0.828E-05
  44 F= -.35710759E+02 E0= -.35710759E+02  d E =0.247759E-05
damped:  g(F)=  0.000E+00 g(S)=  0.000E+00 dE (1.order)= 0.000E+00
 bond charge predicted
       N       E                     dE             d eps       ncg     rms          rms(c)
DAV:   1    -0.357107686750E+02   -0.99805E-05   -0.11188E-06    48   0.988E-03    0.252E-04
DAV:   2    -0.357107686839E+02   -0.88771E-08   -0.68754E-08    48   0.220E-03    0.153E-04
DAV:   3    -0.357107686894E+02   -0.55786E-08   -0.26496E-08    48   0.680E-04    0.930E-05
DAV:   4    -0.357107686955E+02   -0.61094E-08   -0.21781E-08    48   0.345E-04    0.217E-05
DAV:   5    -0.357107686979E+02   -0.23676E-08   -0.20495E-08    48   0.165E-04    0.144E-05
DAV:   6    -0.357107687000E+02   -0.21146E-08   -0.19931E-08    48   0.887E-05
  45 F= -.35710769E+02 E0= -.35710769E+02  d E =-.999237E-05
damped:  g(F)=  0.000E+00 g(S)=  0.000E+00 dE (1.order)= 0.000E+00
 bond charge predicted
       N       E                     dE             d eps       ncg     rms          rms(c)
DAV:   1    -0.357108029535E+02   -0.34256E-04   -0.20627E-06    48   0.137E-02    0.342E-04
DAV:   2    -0.357108029610E+02   -0.75333E-08   -0.11269E-07    48   0.311E-03    0.208E-04
DAV:   3    -0.357108029631E+02   -0.21373E-08   -0.31396E-08    48   0.975E-04    0.935E-05
DAV:   4    -0.357108029639E+02   -0.81718E-09   -0.22446E-08    48   0.464E-04    0.286E-05
DAV:   5    -0.357108029643E+02   -0.36744E-09   -0.20223E-08    48   0.227E-04    0.186E-05
DAV:   6    -0.357108029647E+02   -0.38494E-09   -0.19540E-08    48   0.131E-04
  46 F= -.35710803E+02 E0= -.35710803E+02  d E =-.342647E-04
damped:  g(F)=  0.000E+00 g(S)=  0.000E+00 dE (1.order)= 0.000E+00
 bond charge predicted
       N       E                     dE             d eps       ncg     rms          rms(c)
DAV:   1    -0.357108751164E+02   -0.72152E-04   -0.37671E-06    48   0.187E-02    0.499E-04
DAV:   2    -0.357108751271E+02   -0.10723E-07   -0.18763E-07    48   0.418E-03    0.293E-04
DAV:   3    -0.357108751299E+02   -0.27778E-08   -0.41102E-08    48   0.133E-03    0.129E-04
DAV:   4    -0.357108751303E+02   -0.48453E-09   -0.24558E-08    48   0.633E-04    0.464E-05
DAV:   5    -0.357108751304E+02   -0.10346E-09   -0.20491E-08    48   0.309E-04    0.278E-05
DAV:   6    -0.357108751305E+02   -0.34333E-10   -0.19322E-08    48   0.179E-04
  47 F= -.35710875E+02 E0= -.35710875E+02  d E =-.721658E-04
damped:  g(F)=  0.000E+00 g(S)=  0.000E+00 dE (1.order)= 0.000E+00
 bond charge predicted
       N       E                     dE             d eps       ncg     rms          rms(c)
DAV:   1    -0.357109987240E+02   -0.12359E-03   -0.62437E-06    48   0.241E-02    0.688E-04
DAV:   2    -0.357109987396E+02   -0.15600E-07   -0.28126E-07    48   0.524E-03    0.365E-04
DAV:   3    -0.357109987460E+02   -0.63528E-08   -0.55278E-08    48   0.168E-03    0.199E-04
DAV:   4    -0.357109987472E+02   -0.12269E-08   -0.27672E-08    48   0.802E-04    0.659E-05
DAV:   5    -0.357109987470E+02    0.14438E-09   -0.21270E-08    48   0.389E-04    0.338E-05
DAV:   6    -0.357109987468E+02    0.23624E-09   -0.19371E-08    48   0.224E-04
  48 F= -.35710999E+02 E0= -.35710999E+02  d E =-.123616E-03
damped:  g(F)=  0.000E+00 g(S)=  0.000E+00 dE (1.order)= 0.000E+00
 bond charge predicted
       N       E                     dE             d eps       ncg     rms          rms(c)
DAV:   1    -0.357112092789E+02   -0.21053E-03   -0.13045E-05    48   0.346E-02    0.109E-03
DAV:   2    -0.357112093032E+02   -0.24258E-07   -0.52912E-07    48   0.738E-03    0.529E-04
DAV:   3    -0.357112093169E+02   -0.13699E-07   -0.91144E-08    48   0.239E-03    0.323E-04
DAV:   4    -0.357112093209E+02   -0.40568E-08   -0.35827E-08    48   0.111E-03    0.104E-04
DAV:   5    -0.357112093203E+02    0.67325E-09   -0.23264E-08    48   0.530E-04    0.431E-05
DAV:   6    -0.357112093200E+02    0.31764E-09   -0.19824E-08    48   0.296E-04
  49 F= -.35711209E+02 E0= -.35711209E+02  d E =-.210573E-03
damped:  g(F)=  0.000E+00 g(S)=  0.000E+00 dE (1.order)= 0.000E+00
 bond charge predicted
       N       E                     dE             d eps       ncg     rms          rms(c)
DAV:   1    -0.357115441157E+02   -0.33480E-03   -0.28013E-05    48   0.504E-02    0.171E-03
DAV:   2    -0.357115441511E+02   -0.35377E-07   -0.10711E-06    48   0.107E-02    0.796E-04
DAV:   3    -0.357115441784E+02   -0.27267E-07   -0.16597E-07    48   0.344E-03    0.493E-04
DAV:   4    -0.357115441876E+02   -0.92180E-08   -0.52840E-08    48   0.157E-03    0.164E-04
DAV:   5    -0.357115441868E+02    0.76147E-09   -0.27878E-08    48   0.746E-04    0.650E-05
DAV:   6    -0.357115441864E+02    0.43178E-09   -0.21099E-08    48   0.405E-04
  50 F= -.35711544E+02 E0= -.35711544E+02  d E =-.334866E-03
damped:  g(F)=  0.000E+00 g(S)=  0.000E+00 dE (1.order)= 0.000E+00
 bond charge predicted
       N       E                     dE             d eps       ncg     rms          rms(c)
DAV:   1    -0.357120492227E+02   -0.50504E-03   -0.58021E-05    48   0.719E-02    0.244E-03
DAV:   2    -0.357120492916E+02   -0.68918E-07   -0.21443E-06    52   0.150E-02    0.114E-03
DAV:   3    -0.357120493431E+02   -0.51457E-07   -0.31097E-07    48   0.479E-03    0.676E-04
DAV:   4    -0.357120493590E+02   -0.15955E-07   -0.86440E-08    48   0.218E-03    0.217E-04
DAV:   5    -0.357120493579E+02    0.10618E-08   -0.37122E-08    48   0.101E-03    0.928E-05
DAV:   6    -0.357120493581E+02   -0.11573E-09   -0.23855E-08    48   0.559E-04
  51 F= -.35712049E+02 E0= -.35712049E+02  d E =-.505172E-03
damped:  g(F)=  0.000E+00 g(S)=  0.000E+00 dE (1.order)= 0.000E+00
 bond charge predicted
       N       E                     dE             d eps       ncg     rms          rms(c)
DAV:   1    -0.357127381065E+02   -0.68875E-03   -0.10877E-04    80   0.959E-02    0.317E-03
DAV:   2    -0.357127379208E+02    0.18576E-06   -0.80030E-07    64   0.855E-03    0.164E-03
DAV:   3    -0.357127379585E+02   -0.37727E-07   -0.14938E-07    48   0.321E-03    0.809E-04
DAV:   4    -0.357127379784E+02   -0.19880E-07   -0.57815E-08    48   0.173E-03    0.169E-04
DAV:   5    -0.357127379794E+02   -0.10346E-08   -0.27338E-08    48   0.752E-04    0.829E-05
DAV:   6    -0.357127379853E+02   -0.58791E-08   -0.20793E-08    48   0.408E-04
  52 F= -.35712738E+02 E0= -.35712738E+02  d E =-.688627E-03
damped:  g(F)=  0.000E+00 g(S)=  0.000E+00 dE (1.order)= 0.000E+00
 bond charge predicted
       N       E                     dE             d eps       ncg     rms          rms(c)
DAV:   1    -0.357136008402E+02   -0.86286E-03   -0.16726E-04    96   0.119E-01    0.403E-03
DAV:   2    -0.357136005381E+02    0.30210E-06   -0.12078E-06    64   0.109E-02    0.204E-03
DAV:   3    -0.357136005880E+02   -0.49941E-07   -0.21994E-07    48   0.405E-03    0.106E-03
DAV:   4    -0.357136006294E+02   -0.41392E-07   -0.77738E-08    48   0.217E-03    0.197E-04
DAV:   5    -0.357136006320E+02   -0.25886E-08   -0.30646E-08    48   0.922E-04    0.104E-04
DAV:   6    -0.357136006419E+02   -0.99417E-08   -0.21086E-08    48   0.458E-04
  53 F= -.35713601E+02 E0= -.35713601E+02  d E =-.862657E-03
damped:  g(F)=  0.000E+00 g(S)=  0.000E+00 dE (1.order)= 0.000E+00
 bond charge predicted
       N       E                     dE             d eps       ncg     rms          rms(c)
DAV:   1    -0.357145916882E+02   -0.99106E-03   -0.22504E-04    96   0.137E-01    0.465E-03
DAV:   2    -0.357145913169E+02    0.37139E-06   -0.16847E-06    64   0.127E-02    0.237E-03
DAV:   3    -0.357145913817E+02   -0.64867E-07   -0.29791E-07    48   0.476E-03    0.121E-03
DAV:   4    -0.357145914391E+02   -0.57355E-07   -0.97406E-08    48   0.253E-03    0.240E-04
DAV:   5    -0.357145914447E+02   -0.56501E-08   -0.34545E-08    48   0.106E-03    0.122E-04
DAV:   6    -0.357145914589E+02   -0.14167E-07   -0.21590E-08    48   0.530E-04
  54 F= -.35714591E+02 E0= -.35714591E+02  d E =-.990817E-03
damped:  g(F)=  0.000E+00 g(S)=  0.000E+00 dE (1.order)= 0.000E+00
 bond charge predicted
       N       E                     dE             d eps       ncg     rms          rms(c)
DAV:   1    -0.357145894595E+02    0.19852E-05   -0.10854E-07    48   0.292E-03    0.117E-04
DAV:   2    -0.357145894762E+02   -0.16672E-07   -0.20691E-08    48   0.709E-04    0.651E-05
DAV:   3    -0.357145894901E+02   -0.13865E-07   -0.16410E-08    48   0.250E-04    0.435E-05
DAV:   4    -0.357145895244E+02   -0.34358E-07   -0.16281E-08    48   0.168E-04    0.172E-05
DAV:   5    -0.357145895453E+02   -0.20898E-07   -0.16049E-08    48   0.949E-05    0.121E-05
DAV:   6    -0.357145895842E+02   -0.38859E-07   -0.16391E-08    48   0.931E-05
  55 F= -.35714590E+02 E0= -.35714590E+02  d E =0.187470E-05
damped:  g(F)=  0.000E+00 g(S)=  0.000E+00 dE (1.order)= 0.000E+00
 bond charge predicted
       N       E                     dE             d eps       ncg     rms          rms(c)
DAV:   1    -0.357145885253E+02    0.10200E-05   -0.39825E-07    48   0.592E-03    0.197E-04
DAV:   2    -0.357145885347E+02   -0.93420E-08   -0.33922E-08    48   0.137E-03    0.110E-04
DAV:   3    -0.357145885411E+02   -0.64074E-08   -0.18417E-08    48   0.430E-04    0.724E-05
DAV:   4    -0.357145885528E+02   -0.11701E-07   -0.17121E-08    48   0.235E-04    0.222E-05
DAV:   5    -0.357145885592E+02   -0.63570E-08   -0.16794E-08    48   0.112E-04    0.152E-05
DAV:   6    -0.357145885649E+02   -0.57810E-08   -0.16810E-08    48   0.588E-05
  56 F= -.35714589E+02 E0= -.35714589E+02  d E =0.101926E-05
damped:  g(F)=  0.000E+00 g(S)=  0.000E+00 dE (1.order)= 0.000E+00
 bond charge predicted
       N       E                     dE             d eps       ncg     rms          rms(c)
DAV:   1    -0.357145927695E+02   -0.42103E-05   -0.10075E-06    48   0.938E-03    0.264E-04
DAV:   2    -0.357145927738E+02   -0.42764E-08   -0.63160E-08    48   0.217E-03    0.152E-04
DAV:   3    -0.357145927755E+02   -0.17283E-08   -0.22710E-08    48   0.661E-04    0.966E-05
DAV:   4    -0.357145927776E+02   -0.21371E-08   -0.18767E-08    48   0.316E-04    0.315E-05
DAV:   5    -0.357145927786E+02   -0.93496E-09   -0.18051E-08    48   0.152E-04    0.179E-05
DAV:   6    -0.357145927796E+02   -0.10026E-08   -0.17987E-08    48   0.807E-05
  57 F= -.35714593E+02 E0= -.35714593E+02  d E =-.421463E-05
damped:  g(F)=  0.000E+00 g(S)=  0.000E+00 dE (1.order)= 0.000E+00
 bond charge predicted
       N       E                     dE             d eps       ncg     rms          rms(c)
DAV:   1    -0.357146081445E+02   -0.15366E-04   -0.23949E-06    48   0.143E-02    0.372E-04
DAV:   2    -0.357146081539E+02   -0.94294E-08   -0.12791E-07    48   0.332E-03    0.218E-04
DAV:   3    -0.357146081564E+02   -0.24644E-08   -0.30547E-08    48   0.982E-04    0.114E-04
DAV:   4    -0.357146081572E+02   -0.80945E-09   -0.21200E-08    48   0.451E-04    0.374E-05
DAV:   5    -0.357146081571E+02    0.95042E-10   -0.19282E-08    48   0.218E-04    0.233E-05
DAV:   6    -0.357146081570E+02    0.87311E-10   -0.18800E-08    48   0.120E-04
  58 F= -.35714608E+02 E0= -.35714608E+02  d E =-.153775E-04
damped:  g(F)=  0.000E+00 g(S)=  0.000E+00 dE (1.order)= 0.000E+00
 bond charge predicted
       N       E                     dE             d eps       ncg     rms          rms(c)
DAV:   1    -0.357146421771E+02   -0.34020E-04   -0.53368E-06    48   0.211E-02    0.545E-04
DAV:   2    -0.357146421978E+02   -0.20682E-07   -0.26219E-07    48   0.491E-03    0.325E-04
DAV:   3    -0.357146422040E+02   -0.62147E-08   -0.45175E-08    48   0.144E-03    0.147E-04
DAV:   4    -0.357146422050E+02   -0.98271E-09   -0.24992E-08    48   0.658E-04    0.503E-05
DAV:   5    -0.357146422045E+02    0.52137E-09   -0.20707E-08    48   0.315E-04    0.313E-05
DAV:   6    -0.357146422041E+02    0.36925E-09   -0.19516E-08    48   0.176E-04
  59 F= -.35714642E+02 E0= -.35714642E+02  d E =-.340471E-04
damped:  g(F)=  0.000E+00 g(S)=  0.000E+00 dE (1.order)= 0.000E+00
 bond charge predicted
       N       E                     dE             d eps       ncg     rms          rms(c)
DAV:   1    -0.357147040699E+02   -0.61865E-04   -0.10858E-05    48   0.300E-02    0.777E-04
DAV:   2    -0.357147041096E+02   -0.39704E-07   -0.51024E-07    48   0.698E-03    0.466E-04
DAV:   3    -0.357147041214E+02   -0.11762E-07   -0.71763E-08    48   0.203E-03    0.204E-04
DAV:   4    -0.357147041231E+02   -0.17699E-08   -0.31411E-08    48   0.929E-04    0.708E-05
DAV:   5    -0.357147041225E+02    0.66439E-09   -0.22730E-08    48   0.445E-04    0.458E-05
DAV:   6    -0.357147041218E+02    0.65666E-09   -0.20262E-08    48   0.250E-04
  60 F= -.35714704E+02 E0= -.35714704E+02  d E =-.619177E-04
damped:  g(F)=  0.000E+00 g(S)=  0.000E+00 dE (1.order)= 0.000E+00
 bond charge predicted
       N       E                     dE             d eps       ncg     rms          rms(c)
DAV:   1    -0.357148185216E+02   -0.11440E-03   -0.26277E-05    48   0.468E-02    0.121E-03
DAV:   2    -0.357148186119E+02   -0.90284E-07   -0.11946E-06    48   0.108E-02    0.728E-04
DAV:   3    -0.357148186380E+02   -0.26060E-07   -0.14448E-07    48   0.314E-03    0.304E-04
DAV:   4    -0.357148186417E+02   -0.36885E-08   -0.48399E-08    48   0.142E-03    0.103E-04
DAV:   5    -0.357148186410E+02    0.65893E-09   -0.27911E-08    48   0.682E-04    0.678E-05
DAV:   6    -0.357148186397E+02    0.12697E-08   -0.21944E-08    48   0.385E-04
  61 F= -.35714819E+02 E0= -.35714819E+02  d E =-.114518E-03
damped:  g(F)=  0.000E+00 g(S)=  0.000E+00 dE (1.order)= 0.000E+00
 bond charge predicted
       N       E                     dE             d eps       ncg     rms          rms(c)
DAV:   1    -0.357150171291E+02   -0.19849E-03   -0.62786E-05    48   0.724E-02    0.189E-03
DAV:   2    -0.357150173362E+02   -0.20709E-06   -0.28031E-06    48   0.167E-02    0.113E-03
DAV:   3    -0.357150173940E+02   -0.57734E-07   -0.31486E-07    48   0.481E-03    0.448E-04
DAV:   4    -0.357150174028E+02   -0.88418E-08   -0.88271E-08    48   0.217E-03    0.149E-04
DAV:   5    -0.357150174015E+02    0.12922E-08   -0.40088E-08    48   0.104E-03    0.978E-05
DAV:   6    -0.357150173990E+02    0.24779E-08   -0.25845E-08    48   0.591E-04
  62 F= -.35715017E+02 E0= -.35715017E+02  d E =-.198759E-03
damped:  g(F)=  0.000E+00 g(S)=  0.000E+00 dE (1.order)= 0.000E+00
 bond charge predicted
       N       E                     dE             d eps       ncg     rms          rms(c)
DAV:   1    -0.357153449126E+02   -0.32751E-03   -0.15079E-04    96   0.110E-01    0.289E-03
DAV:   2    -0.357153448947E+02    0.17861E-07   -0.16270E-06    48   0.105E-02    0.180E-03
DAV:   3    -0.357153449448E+02   -0.50065E-07   -0.23520E-07    48   0.431E-03    0.408E-04
DAV:   4    -0.357153449500E+02   -0.51748E-08   -0.69839E-08    48   0.183E-03    0.196E-04
DAV:   5    -0.357153449502E+02   -0.20486E-09   -0.32213E-08    48   0.858E-04    0.101E-04
DAV:   6    -0.357153449512E+02   -0.10376E-08   -0.24195E-08    48   0.476E-04
  63 F= -.35715345E+02 E0= -.35715345E+02  d E =-.327552E-03
damped:  g(F)=  0.000E+00 g(S)=  0.000E+00 dE (1.order)= 0.000E+00
 bond charge predicted
       N       E                     dE             d eps       ncg     rms          rms(c)
DAV:   1    -0.357158588795E+02   -0.51393E-03   -0.33247E-04    96   0.163E-01    0.430E-03
DAV:   2    -0.357158588484E+02    0.31137E-07   -0.35470E-06    48   0.155E-02    0.267E-03
DAV:   3    -0.357158589523E+02   -0.10391E-06   -0.48045E-07    52   0.630E-03    0.676E-04
DAV:   4    -0.357158589690E+02   -0.16688E-07   -0.12761E-07    48   0.274E-03    0.300E-04
DAV:   5    -0.357158589719E+02   -0.29402E-08   -0.45425E-08    48   0.126E-03    0.170E-04
DAV:   6    -0.357158589760E+02   -0.41274E-08   -0.28661E-08    48   0.695E-04
  64 F= -.35715859E+02 E0= -.35715859E+02  d E =-.514025E-03
damped:  g(F)=  0.000E+00 g(S)=  0.000E+00 dE (1.order)= 0.000E+00
 bond charge predicted
       N       E                     dE             d eps       ncg     rms          rms(c)
DAV:   1    -0.357165846491E+02   -0.72568E-03   -0.61058E-04    96   0.220E-01    0.587E-03
DAV:   2    -0.357165845940E+02    0.55062E-07   -0.65308E-06    64   0.212E-02    0.361E-03
DAV:   3    -0.357165847672E+02   -0.17316E-06   -0.85688E-07    48   0.846E-03    0.111E-03
DAV:   4    -0.357165848160E+02   -0.48849E-07   -0.22414E-07    48   0.389E-03    0.435E-04
DAV:   5    -0.357165848226E+02   -0.66138E-08   -0.66257E-08    48   0.177E-03    0.249E-04
DAV:   6    -0.357165848335E+02   -0.10885E-07   -0.34643E-08    48   0.941E-04
  65 F= -.35716585E+02 E0= -.35716585E+02  d E =-.725857E-03
damped:  g(F)=  0.000E+00 g(S)=  0.000E+00 dE (1.order)= 0.000E+00
 bond charge predicted
       N       E                     dE             d eps       ncg     rms          rms(c)
DAV:   1    -0.357175411087E+02   -0.95629E-03   -0.96015E-04    96   0.276E-01    0.736E-03
DAV:   2    -0.357175410325E+02    0.76246E-07   -0.10197E-05    60   0.264E-02    0.453E-03
DAV:   3    -0.357175413011E+02   -0.26859E-06   -0.13140E-06    52   0.105E-02    0.133E-03
DAV:   4    -0.357175413773E+02   -0.76166E-07   -0.32854E-07    48   0.476E-03    0.527E-04
DAV:   5    -0.357175413895E+02   -0.12199E-07   -0.89768E-08    48   0.216E-03    0.299E-04
DAV:   6    -0.357175414096E+02   -0.20147E-07   -0.41845E-08    48   0.115E-03
  66 F= -.35717541E+02 E0= -.35717541E+02  d E =-.956576E-03
damped:  g(F)=  0.000E+00 g(S)=  0.000E+00 dE (1.order)= 0.000E+00
 bond charge predicted
       N       E                     dE             d eps       ncg     rms          rms(c)
DAV:   1    -0.357187482992E+02   -0.12069E-02   -0.12766E-03    96   0.318E-01    0.858E-03
DAV:   2    -0.357187481583E+02    0.14096E-06   -0.13391E-05    48   0.301E-02    0.526E-03
DAV:   3    -0.357187485373E+02   -0.37907E-06   -0.17329E-06    64   0.120E-02    0.131E-03
DAV:   4    -0.357187486211E+02   -0.83755E-07   -0.40554E-07    48   0.522E-03    0.573E-04
DAV:   5    -0.357187486432E+02   -0.22066E-07   -0.10747E-07    48   0.236E-03    0.315E-04
DAV:   6    -0.357187486781E+02   -0.34920E-07   -0.48513E-08    48   0.133E-03
  67 F= -.35718749E+02 E0= -.35718749E+02  d E =-.120727E-02
damped:  g(F)=  0.000E+00 g(S)=  0.000E+00 dE (1.order)= 0.000E+00
 bond charge predicted
       N       E                     dE             d eps       ncg     rms          rms(c)
DAV:   1    -0.357187496769E+02   -0.10337E-05   -0.82499E-07    48   0.852E-03    0.387E-04
DAV:   2    -0.357187497188E+02   -0.41924E-07   -0.55858E-08    48   0.208E-03    0.219E-04
DAV:   3    -0.357187497576E+02   -0.38850E-07   -0.18892E-08    48   0.678E-04    0.136E-04
DAV:   4    -0.357187498452E+02   -0.87551E-07   -0.19049E-08    48   0.541E-04    0.455E-05
DAV:   5    -0.357187498708E+02   -0.25622E-07   -0.16181E-08    48   0.270E-04    0.320E-05
DAV:   6    -0.357187499294E+02   -0.58553E-07   -0.16358E-08    48   0.141E-04
  68 F= -.35718750E+02 E0= -.35718750E+02  d E =-.125128E-05
damped:  g(F)=  0.000E+00 g(S)=  0.000E+00 dE (1.order)= 0.000E+00
 bond charge predicted
       N       E                     dE             d eps       ncg     rms          rms(c)
DAV:   1    -0.357187537956E+02   -0.39248E-05   -0.20099E-06    48   0.134E-02    0.588E-04
DAV:   2    -0.357187538266E+02   -0.30993E-07   -0.11050E-07    48   0.318E-03    0.321E-04
DAV:   3    -0.357187538509E+02   -0.24342E-07   -0.26380E-08    48   0.992E-04    0.194E-04
DAV:   4    -0.357187538981E+02   -0.47154E-07   -0.23369E-08    48   0.738E-04    0.623E-05
DAV:   5    -0.357187539090E+02   -0.10924E-07   -0.18668E-08    48   0.328E-04    0.432E-05
DAV:   6    -0.357187539301E+02   -0.21129E-07   -0.18065E-08    48   0.139E-04
  69 F= -.35718754E+02 E0= -.35718754E+02  d E =-.400076E-05
damped:  g(F)=  0.000E+00 g(S)=  0.000E+00 dE (1.order)= 0.000E+00
 bond charge predicted
       N       E                     dE             d eps       ncg     rms          rms(c)
DAV:   1    -0.357187639559E+02   -0.10047E-04   -0.21433E-06    48   0.139E-02    0.511E-04
DAV:   2    -0.357187639710E+02   -0.15087E-07   -0.11878E-07    48   0.325E-03    0.288E-04
DAV:   3    -0.357187639805E+02   -0.95017E-08   -0.30099E-08    48   0.102E-03    0.188E-04
DAV:   4    -0.357187639960E+02   -0.15473E-07   -0.23376E-08    48   0.656E-04    0.537E-05
DAV:   5    -0.357187639992E+02   -0.32412E-08   -0.19787E-08    48   0.293E-04    0.402E-05
DAV:   6    -0.357187640040E+02   -0.48026E-08   -0.18990E-08    48   0.127E-04
  70 F= -.35718764E+02 E0= -.35718764E+02  d E =-.100739E-04
damped:  g(F)=  0.000E+00 g(S)=  0.000E+00 dE (1.order)= 0.000E+00
 bond charge predicted
       N       E                     dE             d eps       ncg     rms          rms(c)
DAV:   1    -0.357187844788E+02   -0.20480E-04   -0.19941E-06    48   0.133E-02    0.356E-04
DAV:   2    -0.357187844875E+02   -0.87272E-08   -0.11556E-07    48   0.312E-03    0.196E-04
DAV:   3    -0.357187844910E+02   -0.35352E-08   -0.31169E-08    48   0.984E-04    0.135E-04
DAV:   4    -0.357187844933E+02   -0.22765E-08   -0.21688E-08    48   0.463E-04    0.563E-05
DAV:   5    -0.357187844943E+02   -0.10309E-08   -0.19604E-08    48   0.230E-04    0.204E-05
DAV:   6    -0.357187844951E+02   -0.80445E-09   -0.18935E-08    48   0.123E-04
  71 F= -.35718784E+02 E0= -.35718784E+02  d E =-.204911E-04
damped:  g(F)=  0.000E+00 g(S)=  0.000E+00 dE (1.order)= 0.000E+00
 bond charge predicted
       N       E                     dE             d eps       ncg     rms          rms(c)
DAV:   1    -0.357188215137E+02   -0.37019E-04   -0.32248E-06    48   0.167E-02    0.469E-04
DAV:   2    -0.357188215213E+02   -0.76191E-08   -0.17738E-07    48   0.394E-03    0.291E-04
DAV:   3    -0.357188215215E+02   -0.21646E-09   -0.37260E-08    48   0.124E-03    0.149E-04
DAV:   4    -0.357188215223E+02   -0.73896E-09   -0.23559E-08    48   0.630E-04    0.609E-05
DAV:   5    -0.357188215230E+02   -0.73419E-09   -0.19800E-08    48   0.293E-04    0.387E-05
DAV:   6    -0.357188215232E+02   -0.19372E-09   -0.18921E-08    48   0.164E-04
  72 F= -.35718822E+02 E0= -.35718822E+02  d E =-.370281E-04
damped:  g(F)=  0.000E+00 g(S)=  0.000E+00 dE (1.order)= 0.000E+00
 bond charge predicted
       N       E                     dE             d eps       ncg     rms          rms(c)
DAV:   1    -0.357188868789E+02   -0.65356E-04   -0.45219E-06    48   0.199E-02    0.613E-04
DAV:   2    -0.357188868873E+02   -0.84043E-08   -0.24118E-07    48   0.462E-03    0.386E-04
DAV:   3    -0.357188868862E+02    0.10234E-08   -0.43820E-08    48   0.147E-03    0.202E-04
DAV:   4    -0.357188868865E+02   -0.24943E-09   -0.26065E-08    48   0.800E-04    0.811E-05
DAV:   5    -0.357188868873E+02   -0.84447E-09   -0.20040E-08    48   0.365E-04    0.556E-05
DAV:   6    -0.357188868878E+02   -0.48863E-09   -0.18838E-08    48   0.210E-04
  73 F= -.35718887E+02 E0= -.35718887E+02  d E =-.653646E-04
damped:  g(F)=  0.000E+00 g(S)=  0.000E+00 dE (1.order)= 0.000E+00
 bond charge predicted
       N       E                     dE             d eps       ncg     rms          rms(c)
DAV:   1    -0.357190013692E+02   -0.11448E-03   -0.49008E-06    48   0.209E-02    0.644E-04
DAV:   2    -0.357190013782E+02   -0.89142E-08   -0.23652E-07    48   0.459E-03    0.367E-04
DAV:   3    -0.357190013806E+02   -0.24306E-08   -0.46066E-08    48   0.148E-03    0.164E-04
DAV:   4    -0.357190013812E+02   -0.64938E-09   -0.25084E-08    48   0.712E-04    0.733E-05
DAV:   5    -0.357190013816E+02   -0.33947E-09   -0.19926E-08    48   0.338E-04    0.349E-05
DAV:   6    -0.357190013815E+02    0.58890E-10   -0.18629E-08    48   0.186E-04
  74 F= -.35719001E+02 E0= -.35719001E+02  d E =-.114494E-03
damped:  g(F)=  0.000E+00 g(S)=  0.000E+00 dE (1.order)= 0.000E+00
 reached required accuracy - stopping structural energy minimisation
