unknown system                          
           1
    30.000000    0.000000    0.000000
     0.000000   30.000000    0.000000
     0.000000    0.000000   30.000000
   H    C    N 
   3   2   1
Direct configuration=     1
   0.47219707  0.46389078  0.50547738
   0.47199557  0.50959820  0.46498303
   0.47729650  0.52055751  0.52336388
   0.48485970  0.49664426  0.49634652
   0.53401536  0.49483981  0.49402421
   0.55965826  0.51445825  0.51578499
Direct configuration=     2
   0.47219700  0.46389050  0.50547781
   0.47199440  0.50959746  0.46498294
   0.47729606  0.52055720  0.52336337
   0.48485950  0.49664413  0.49634653
   0.53401410  0.49484100  0.49402535
   0.55966140  0.51445852  0.51578399
Direct configuration=     3
   0.47219679  0.46389019  0.50547823
   0.47199286  0.50959643  0.46498281
   0.47729535  0.52055688  0.52336281
   0.48485914  0.49664375  0.49634632
   0.53401274  0.49484321  0.49402759
   0.55966558  0.51445834  0.51578225
Direct configuration=     4
   0.47219638  0.46388982  0.50547848
   0.47199121  0.50959521  0.46498258
   0.47729444  0.52055655  0.52336225
   0.48485860  0.49664314  0.49634591
   0.53401148  0.49484684  0.49403111
   0.55967035  0.51445724  0.51577968
Direct configuration=     5
   0.47219576  0.46388934  0.50547849
   0.47198963  0.50959391  0.46498220
   0.47729338  0.52055617  0.52336168
   0.48485807  0.49664259  0.49634549
   0.53400846  0.49485025  0.49403415
   0.55967716  0.51445655  0.51577799
Direct configuration=     6
   0.47219481  0.46388867  0.50547821
   0.47198796  0.50959253  0.46498161
   0.47729221  0.52055566  0.52336099
   0.48485712  0.49664220  0.49634517
   0.53400630  0.49485523  0.49403876
   0.55968406  0.51445452  0.51577526
Direct configuration=     7
   0.47219356  0.46388775  0.50547772
   0.47198585  0.50959080  0.46498073
   0.47729081  0.52055506  0.52336013
   0.48485577  0.49664186  0.49634488
   0.53400293  0.49486111  0.49404419
   0.55969354  0.51445223  0.51577235
Direct configuration=     8
   0.47219238  0.46388665  0.50547751
   0.47198272  0.50958834  0.46497982
   0.47728922  0.52055463  0.52335927
   0.48485418  0.49664115  0.49634442
   0.53399789  0.49486789  0.49405026
   0.55970608  0.51445015  0.51576871
Direct configuration=     9
   0.47219179  0.46388533  0.50547857
   0.47197809  0.50958477  0.46497943
   0.47728768  0.52055441  0.52335850
   0.48485216  0.49664018  0.49634420
   0.53399628  0.49487824  0.49405905
   0.55971646  0.51444587  0.51576024
Direct configuration=    10
   0.47219220  0.46388530  0.50547911
   0.47197789  0.50958454  0.46497967
   0.47728778  0.52055450  0.52335859
   0.48485254  0.49664021  0.49634442
   0.53399372  0.49487622  0.49405635
   0.55971834  0.51444803  0.51576185
Direct configuration=    11
   0.47219230  0.46388526  0.50547933
   0.47197771  0.50958439  0.46497975
   0.47728784  0.52055453  0.52335861
   0.48485252  0.49664018  0.49634448
   0.53399378  0.49487638  0.49405631
   0.55971831  0.51444806  0.51576151
Direct configuration=    12
   0.47219252  0.46388519  0.50547977
   0.47197736  0.50958411  0.46497991
   0.47728796  0.52055458  0.52335865
   0.48485248  0.49664013  0.49634460
   0.53399382  0.49487659  0.49405614
   0.55971832  0.51444821  0.51576094
Direct configuration=    13
   0.47219284  0.46388508  0.50548041
   0.47197684  0.50958368  0.46498016
   0.47728813  0.52055465  0.52335870
   0.48485243  0.49664004  0.49634478
   0.53399381  0.49487686  0.49405581
   0.55971840  0.51444850  0.51576014
Direct configuration=    14
   0.47219327  0.46388494  0.50548127
   0.47197615  0.50958311  0.46498047
   0.47728836  0.52055475  0.52335878
   0.48485238  0.49663993  0.49634501
   0.53399374  0.49487715  0.49405532
   0.55971858  0.51444893  0.51575914
Direct configuration=    15
   0.47219379  0.46388476  0.50548233
   0.47197529  0.50958240  0.46498087
   0.47728863  0.52055487  0.52335888
   0.48485232  0.49663978  0.49634530
   0.53399359  0.49487749  0.49405468
   0.55971884  0.51444950  0.51575794
Direct configuration=    16
   0.47219441  0.46388455  0.50548359
   0.47197427  0.50958156  0.46498134
   0.47728895  0.52055502  0.52335900
   0.48485226  0.49663960  0.49634564
   0.53399339  0.49487788  0.49405391
   0.55971919  0.51445019  0.51575652
Direct configuration=    17
   0.47219520  0.46388428  0.50548521
   0.47197295  0.50958046  0.46498194
   0.47728935  0.52055522  0.52335916
   0.48485218  0.49663936  0.49634608
   0.53399312  0.49487841  0.49405295
   0.55971966  0.51445108  0.51575466
Direct configuration=    18
   0.47219618  0.46388394  0.50548725
   0.47197126  0.50957906  0.46498270
   0.47728984  0.52055546  0.52335937
   0.48485207  0.49663904  0.49634663
   0.53399282  0.49487913  0.49405179
   0.55972029  0.51445218  0.51575227
Direct configuration=    19
   0.47219739  0.46388350  0.50548979
   0.47196915  0.50957728  0.46498364
   0.47729042  0.52055575  0.52335964
   0.48485194  0.49663863  0.49634731
   0.53399246  0.49488014  0.49405041
   0.55972110  0.51445351  0.51574920
Direct configuration=    20
   0.47219886  0.46388294  0.50549291
   0.47196654  0.50957505  0.46498481
   0.47729111  0.52055609  0.52335997
   0.48485176  0.49663810  0.49634816
   0.53399201  0.49488149  0.49404879
   0.55972219  0.51445514  0.51574535
Direct configuration=    21
   0.47220060  0.46388223  0.50549668
   0.47196334  0.50957229  0.46498624
   0.47729188  0.52055646  0.52336040
   0.48485153  0.49663744  0.49634921
   0.53399142  0.49488329  0.49404687
   0.55972369  0.51445710  0.51574060
Direct configuration=    22
   0.47220263  0.46388136  0.50550114
   0.47195951  0.50956892  0.46498796
   0.47729272  0.52055684  0.52336091
   0.48485120  0.49663665  0.49635049
   0.53399065  0.49488561  0.49404471
   0.55972576  0.51445942  0.51573479
Direct configuration=    23
   0.47220495  0.46388029  0.50550629
   0.47195501  0.50956489  0.46498999
   0.47729357  0.52055720  0.52336154
   0.48485075  0.49663571  0.49635205
   0.53398955  0.49488858  0.49404229
   0.55972863  0.51446214  0.51572784
Direct configuration=    24
   0.47220749  0.46387900  0.50551199
   0.47194986  0.50956026  0.46499227
   0.47729432  0.52055752  0.52336228
   0.48485014  0.49663460  0.49635391
   0.53398806  0.49489220  0.49403986
   0.55973259  0.51446523  0.51571969
Direct configuration=    25
   0.47220996  0.46387738  0.50551782
   0.47194420  0.50955528  0.46499469
   0.47729474  0.52055780  0.52336322
   0.48484931  0.49663339  0.49635588
   0.53398641  0.49489665  0.49403802
   0.55973784  0.51446831  0.51571036
Direct configuration=    26
   0.47220990  0.46387738  0.50551771
   0.47194426  0.50955535  0.46499465
   0.47729469  0.52055779  0.52336321
   0.48484931  0.49663340  0.49635585
   0.53398640  0.49489664  0.49403814
   0.55973789  0.51446825  0.51571044
Direct configuration=    27
   0.47220977  0.46387739  0.50551749
   0.47194437  0.50955547  0.46499457
   0.47729459  0.52055776  0.52336319
   0.48484932  0.49663342  0.49635579
   0.53398637  0.49489664  0.49403839
   0.55973803  0.51446812  0.51571057
Direct configuration=    28
   0.47220958  0.46387739  0.50551717
   0.47194452  0.50955565  0.46499444
   0.47729446  0.52055770  0.52336316
   0.48484931  0.49663345  0.49635569
   0.53398631  0.49489668  0.49403879
   0.55973828  0.51446793  0.51571074
Direct configuration=    29
   0.47220932  0.46387739  0.50551675
   0.47194468  0.50955587  0.46499428
   0.47729428  0.52055763  0.52336312
   0.48484930  0.49663347  0.49635556
   0.53398620  0.49489679  0.49403934
   0.55973867  0.51446766  0.51571094
Direct configuration=    30
   0.47220901  0.46387738  0.50551626
   0.47194486  0.50955613  0.46499409
   0.47729408  0.52055753  0.52336306
   0.48484926  0.49663349  0.49635541
   0.53398604  0.49489695  0.49404002
   0.55973920  0.51446733  0.51571116
Direct configuration=    31
   0.47220865  0.46387737  0.50551571
   0.47194503  0.50955639  0.46499388
   0.47729386  0.52055741  0.52336299
   0.48484921  0.49663350  0.49635524
   0.53398585  0.49489721  0.49404080
   0.55973985  0.51446693  0.51571137
Direct configuration=    32
   0.47220823  0.46387734  0.50551510
   0.47194516  0.50955666  0.46499365
   0.47729363  0.52055725  0.52336291
   0.48484912  0.49663350  0.49635505
   0.53398557  0.49489761  0.49404171
   0.55974076  0.51446645  0.51571157
Direct configuration=    33
   0.47220778  0.46387730  0.50551454
   0.47194514  0.50955688  0.46499345
   0.47729343  0.52055707  0.52336285
   0.48484898  0.49663347  0.49635488
   0.53398516  0.49489818  0.49404263
   0.55974198  0.51446590  0.51571164
Direct configuration=    34
   0.47220738  0.46387723  0.50551420
   0.47194483  0.50955697  0.46499336
   0.47729336  0.52055691  0.52336282
   0.48484879  0.49663342  0.49635476
   0.53398460  0.49489896  0.49404345
   0.55974350  0.51446532  0.51571140
Direct configuration=    35
   0.47220712  0.46387714  0.50551432
   0.47194402  0.50955678  0.46499350
   0.47729352  0.52055682  0.52336290
   0.48484854  0.49663334  0.49635478
   0.53398392  0.49490005  0.49404398
   0.55974533  0.51446468  0.51571052
Direct configuration=    36
   0.47220716  0.46387701  0.50551531
   0.47194234  0.50955611  0.46499405
   0.47729410  0.52055686  0.52336316
   0.48484821  0.49663323  0.49635503
   0.53398311  0.49490157  0.49404392
   0.55974753  0.51446403  0.51570853
Direct configuration=    37
   0.47220774  0.46387683  0.50551779
   0.47193922  0.50955466  0.46499529
   0.47729538  0.52055717  0.52336375
   0.48484777  0.49663305  0.49635569
   0.53398205  0.49490363  0.49404273
   0.55975030  0.51446346  0.51570475
Direct configuration=    38
   0.47220918  0.46387659  0.50552263
   0.47193386  0.50955195  0.46499766
   0.47729773  0.52055793  0.52336485
   0.48484718  0.49663279  0.49635701
   0.53398050  0.49490631  0.49403959
   0.55975401  0.51446323  0.51569825
Direct configuration=    39
   0.47221193  0.46387631  0.50553093
   0.47192521  0.50954748  0.46500166
   0.47730157  0.52055937  0.52336671
   0.48484627  0.49663230  0.49635938
   0.53397852  0.49490989  0.49403380
   0.55975896  0.51446346  0.51568751
Direct configuration=    40
   0.47221602  0.46387594  0.50554270
   0.47191331  0.50954125  0.46500726
   0.47730671  0.52056150  0.52336929
   0.48484501  0.49663166  0.49636280
   0.53397656  0.49491433  0.49402576
   0.55976485  0.51446412  0.51567219
Direct configuration=    41
   0.47222125  0.46387532  0.50555713
   0.47189904  0.50953357  0.46501399
   0.47731246  0.52056412  0.52337231
   0.48484360  0.49663173  0.49636766
   0.53397397  0.49491817  0.49401539
   0.55977214  0.51446589  0.51565352
Direct configuration=    42
   0.47222125  0.46387535  0.50555702
   0.47189920  0.50953362  0.46501395
   0.47731233  0.52056415  0.52337232
   0.48484363  0.49663173  0.49636762
   0.53397405  0.49491811  0.49401562
   0.55977199  0.51446585  0.51565347
Direct configuration=    43
   0.47222122  0.46387539  0.50555678
   0.47189954  0.50953372  0.46501385
   0.47731206  0.52056420  0.52337234
   0.48484369  0.49663172  0.49636754
   0.53397413  0.49491796  0.49401605
   0.55977182  0.51446582  0.51565343
Direct configuration=    44
   0.47222116  0.46387543  0.50555640
   0.47190003  0.50953388  0.46501370
   0.47731166  0.52056424  0.52337235
   0.48484376  0.49663170  0.49636742
   0.53397408  0.49491770  0.49401665
   0.55977176  0.51446585  0.51565349
Direct configuration=    45
   0.47222104  0.46387546  0.50555587
   0.47190065  0.50953409  0.46501346
   0.47731115  0.52056425  0.52337231
   0.48484384  0.49663168  0.49636729
   0.53397386  0.49491736  0.49401741
   0.55977193  0.51446597  0.51565366
Direct configuration=    46
   0.47222081  0.46387545  0.50555521
   0.47190138  0.50953433  0.46501314
   0.47731053  0.52056420  0.52337219
   0.48484386  0.49663165  0.49636715
   0.53397349  0.49491707  0.49401843
   0.55977238  0.51446610  0.51565389
Direct configuration=    47
   0.47222046  0.46387540  0.50555440
   0.47190215  0.50953459  0.46501272
   0.47730984  0.52056407  0.52337199
   0.48484381  0.49663161  0.49636700
   0.53397307  0.49491699  0.49401982
   0.55977313  0.51446616  0.51565407
Direct configuration=    48
   0.47221991  0.46387525  0.50555339
   0.47190297  0.50953485  0.46501216
   0.47730902  0.52056381  0.52337165
   0.48484362  0.49663152  0.49636683
   0.53397257  0.49491730  0.49402184
   0.55977437  0.51446607  0.51565413
Direct configuration=    49
   0.47221909  0.46387498  0.50555216
   0.47190378  0.50953505  0.46501143
   0.47730805  0.52056340  0.52337114
   0.48484327  0.49663135  0.49636659
   0.53397195  0.49491825  0.49402465
   0.55977632  0.51446577  0.51565403
Direct configuration=    50
   0.47221795  0.46387454  0.50555074
   0.47190444  0.50953513  0.46501056
   0.47730696  0.52056281  0.52337048
   0.48484276  0.49663105  0.49636624
   0.53397087  0.49491995  0.49402816
   0.55977949  0.51446534  0.51565383
Direct configuration=    51
   0.47221650  0.46387392  0.50554921
   0.47190483  0.50953499  0.46500959
   0.47730572  0.52056209  0.52336972
   0.48484214  0.49663057  0.49636575
   0.53396915  0.49492242  0.49403216
   0.55978412  0.51446482  0.51565356
Direct configuration=    52
   0.47221483  0.46387315  0.50554773
   0.47190472  0.50953453  0.46500862
   0.47730433  0.52056129  0.52336893
   0.48484144  0.49662992  0.49636511
   0.53396734  0.49492608  0.49403692
   0.55978980  0.51446383  0.51565269
Direct configuration=    53
   0.47221331  0.46387235  0.50554661
   0.47190386  0.50953359  0.46500782
   0.47730284  0.52056055  0.52336824
   0.48484085  0.49662923  0.49636450
   0.53396515  0.49493059  0.49404177
   0.55979645  0.51446249  0.51565104
Direct configuration=    54
   0.47221339  0.46387237  0.50554669
   0.47190377  0.50953354  0.46500787
   0.47730285  0.52056057  0.52336826
   0.48484086  0.49662926  0.49636454
   0.53396509  0.49493055  0.49404165
   0.55979651  0.51446251  0.51565098
Direct configuration=    55
   0.47221354  0.46387241  0.50554688
   0.47190357  0.50953342  0.46500796
   0.47730288  0.52056062  0.52336831
   0.48484087  0.49662931  0.49636463
   0.53396497  0.49493051  0.49404141
   0.55979664  0.51446253  0.51565081
Direct configuration=    56
   0.47221376  0.46387246  0.50554720
   0.47190322  0.50953323  0.46500813
   0.47730294  0.52056070  0.52336839
   0.48484088  0.49662937  0.49636476
   0.53396482  0.49493052  0.49404109
   0.55979684  0.51446253  0.51565043
Direct configuration=    57
   0.47221404  0.46387251  0.50554769
   0.47190268  0.50953292  0.46500838
   0.47730308  0.52056082  0.52336851
   0.48484086  0.49662943  0.49636495
   0.53396467  0.49493064  0.49404071
   0.55979713  0.51446249  0.51564977
Direct configuration=    58
   0.47221438  0.46387255  0.50554840
   0.47190190  0.50953249  0.46500873
   0.47730331  0.52056098  0.52336868
   0.48484079  0.49662947  0.49636518
   0.53396449  0.49493092  0.49404027
   0.55979759  0.51446240  0.51564874
Direct configuration=    59
   0.47221478  0.46387258  0.50554939
   0.47190083  0.50953188  0.46500920
   0.47730367  0.52056120  0.52336890
   0.48484068  0.49662947  0.49636549
   0.53396421  0.49493138  0.49403974
   0.55979830  0.51446230  0.51564726
Direct configuration=    60
   0.47221528  0.46387257  0.50555090
   0.47189919  0.50953097  0.46500991
   0.47730426  0.52056151  0.52336924
   0.48484047  0.49662942  0.49636592
   0.53396370  0.49493213  0.49403901
   0.55979956  0.51446221  0.51564502
Direct configuration=    61
   0.47221590  0.46387250  0.50555317
   0.47189672  0.50952960  0.46501097
   0.47730520  0.52056195  0.52336972
   0.48484013  0.49662927  0.49636656
   0.53396280  0.49493329  0.49403793
   0.55980171  0.51446219  0.51564165
Direct configuration=    62
   0.47221666  0.46387234  0.50555655
   0.47189304  0.50952757  0.46501250
   0.47730664  0.52056257  0.52337040
   0.48483957  0.49662899  0.49636749
   0.53396141  0.49493512  0.49403648
   0.55980514  0.51446222  0.51563658
Direct configuration=    63
   0.47221758  0.46387203  0.50556144
   0.47188766  0.50952463  0.46501470
   0.47730874  0.52056340  0.52337132
   0.48483870  0.49662851  0.49636883
   0.53395949  0.49493799  0.49403475
   0.55981029  0.51446225  0.51562897
Direct configuration=    64
   0.47221862  0.46387153  0.50556787
   0.47188050  0.50952072  0.46501754
   0.47731141  0.52056442  0.52337246
   0.48483751  0.49662782  0.49637062
   0.53395723  0.49494215  0.49403301
   0.55981719  0.51446216  0.51561850
Direct configuration=    65
   0.47221976  0.46387085  0.50557565
   0.47187179  0.50951594  0.46502093
   0.47731439  0.52056559  0.52337375
   0.48483592  0.49662694  0.49637295
   0.53395426  0.49494720  0.49403114
   0.55982635  0.51446229  0.51560557
Direct configuration=    66
   0.47222078  0.46387000  0.50558388
   0.47186242  0.50951065  0.46502454
   0.47731669  0.52056679  0.52337504
   0.48483425  0.49662595  0.49637559
   0.53395015  0.49495246  0.49402965
   0.55983816  0.51446296  0.51559129
Direct configuration=    67
   0.47222073  0.46387000  0.50558371
   0.47186258  0.50951072  0.46502448
   0.47731653  0.52056676  0.52337502
   0.48483426  0.49662596  0.49637553
   0.53395038  0.49495257  0.49402997
   0.55983797  0.51446280  0.51559128
Direct configuration=    68
   0.47222064  0.46387001  0.50558338
   0.47186290  0.50951084  0.46502436
   0.47731622  0.52056671  0.52337496
   0.48483429  0.49662598  0.49637543
   0.53395072  0.49495272  0.49403054
   0.55983769  0.51446255  0.51559133
Direct configuration=    69
   0.47222050  0.46387001  0.50558290
   0.47186336  0.50951102  0.46502417
   0.47731576  0.52056662  0.52337487
   0.48483436  0.49662598  0.49637529
   0.53395102  0.49495282  0.49403119
   0.55983747  0.51446235  0.51559157
Direct configuration=    70
   0.47222032  0.46387000  0.50558231
   0.47186392  0.50951123  0.46502394
   0.47731520  0.52056651  0.52337475
   0.48483446  0.49662598  0.49637513
   0.53395109  0.49495278  0.49403179
   0.55983747  0.51446230  0.51559207
Direct configuration=    71
   0.47222012  0.46386998  0.50558168
   0.47186452  0.50951145  0.46502368
   0.47731459  0.52056637  0.52337460
   0.48483458  0.49662596  0.49637497
   0.53395091  0.49495263  0.49403231
   0.55983775  0.51446242  0.51559276
Direct configuration=    72
   0.47221987  0.46386993  0.50558105
   0.47186507  0.50951162  0.46502341
   0.47731398  0.52056621  0.52337441
   0.48483468  0.49662589  0.49637481
   0.53395055  0.49495252  0.49403286
   0.55983831  0.51446263  0.51559345
Direct configuration=    73
   0.47221955  0.46386983  0.50558048
   0.47186549  0.50951170  0.46502314
   0.47731339  0.52056602  0.52337417
   0.48483471  0.49662576  0.49637466
   0.53395016  0.49495270  0.49403368
   0.55983915  0.51446280  0.51559387
Direct configuration=    74
   0.47221955  0.46386983  0.50558048
   0.47186549  0.50951170  0.46502314
   0.47731339  0.52056602  0.52337417
   0.48483471  0.49662576  0.49637466
   0.53395016  0.49495270  0.49403368
   0.55983915  0.51446280  0.51559387
