   6   6   0   0
  0.4500000E+04  0.3000000E-08  0.3000000E-08  0.3000000E-08  0.0000000E+00
  1.000000000000000E-004
  CAR 
 unknown system                          
      2.02777512    -25.99162958  301     -6.19088542      1.00000000
    -25.992  0.0000E+00  0.0000E+00
    -25.898  0.0000E+00  0.0000E+00
    -25.805  0.0000E+00  0.0000E+00
    -25.711  0.0000E+00  0.0000E+00
    -25.618  0.0000E+00  0.0000E+00
    -25.525  0.0000E+00  0.0000E+00
    -25.431  0.0000E+00  0.0000E+00
    -25.338  0.0000E+00  0.0000E+00
    -25.244  0.0000E+00  0.0000E+00
    -25.151  0.7925E-17  0.7401E-18
    -25.058  0.1696E-14  0.1591E-15
    -24.964  0.2157E-12  0.2031E-13
    -24.871  0.1786E-10  0.1689E-11
    -24.777  0.9635E-09  0.9168E-10
    -24.684  0.3389E-07  0.3257E-08
    -24.591  0.7780E-06  0.7592E-07
    -24.497  0.1167E-04  0.1166E-05
    -24.404  0.1145E-03  0.1186E-04
    -24.310  0.7354E-03  0.8055E-04
    -24.217  0.3096E-02  0.3697E-03
    -24.124  0.8550E-02  0.1168E-02
    -24.030  0.1550E-01  0.2616E-02
    -23.937  0.1844E-01  0.4338E-02
    -23.843  0.1441E-01  0.5684E-02
    -23.750  0.7394E-02  0.6375E-02
    -23.657  0.2490E-02  0.6607E-02
    -23.563  0.5499E-03  0.6658E-02
    -23.470  0.7958E-04  0.6666E-02
    -23.376  0.7539E-05  0.6667E-02
    -23.283  0.4671E-06  0.6667E-02
    -23.190  0.1890E-07  0.6667E-02
    -23.096  0.4992E-09  0.6667E-02
    -23.003  0.8596E-11  0.6667E-02
    -22.909  0.9641E-13  0.6667E-02
    -22.816  0.7053E-15  0.6667E-02
    -22.723  0.0000E+00  0.6667E-02
    -22.629  0.0000E+00  0.6667E-02
    -22.536  0.0000E+00  0.6667E-02
    -22.443  0.0000E+00  0.6667E-02
    -22.349  0.0000E+00  0.6667E-02
    -22.256  0.0000E+00  0.6667E-02
    -22.162  0.0000E+00  0.6667E-02
    -22.069  0.0000E+00  0.6667E-02
    -21.976  0.0000E+00  0.6667E-02
    -21.882  0.0000E+00  0.6667E-02
    -21.789  0.0000E+00  0.6667E-02
    -21.695  0.0000E+00  0.6667E-02
    -21.602  0.0000E+00  0.6667E-02
    -21.509  0.0000E+00  0.6667E-02
    -21.415  0.0000E+00  0.6667E-02
    -21.322  0.0000E+00  0.6667E-02
    -21.228  0.0000E+00  0.6667E-02
    -21.135  0.0000E+00  0.6667E-02
    -21.042  0.0000E+00  0.6667E-02
    -20.948  0.0000E+00  0.6667E-02
    -20.855  0.0000E+00  0.6667E-02
    -20.761  0.0000E+00  0.6667E-02
    -20.668  0.0000E+00  0.6667E-02
    -20.575  0.0000E+00  0.6667E-02
    -20.481  0.0000E+00  0.6667E-02
    -20.388  0.0000E+00  0.6667E-02
    -20.294  0.0000E+00  0.6667E-02
    -20.201  0.2338E-15  0.6667E-02
    -20.108  0.3469E-13  0.6667E-02
    -20.014  0.3392E-11  0.6667E-02
    -19.921  0.2160E-09  0.6667E-02
    -19.827  0.8967E-08  0.6667E-02
    -19.734  0.2429E-06  0.6667E-02
    -19.641  0.4296E-05  0.6667E-02
    -19.547  0.4968E-04  0.6672E-02
    -19.454  0.3760E-03  0.6707E-02
    -19.360  0.1865E-02  0.6881E-02
    -19.267  0.6063E-02  0.7447E-02
    -19.174  0.1294E-01  0.8655E-02
    -19.080  0.1812E-01  0.1035E-01
    -18.987  0.1667E-01  0.1190E-01
    -18.893  0.1007E-01  0.1284E-01
    -18.800  0.3992E-02  0.1322E-01
    -18.707  0.1038E-02  0.1331E-01
    -18.613  0.1770E-03  0.1333E-01
    -18.520  0.1977E-04  0.1333E-01
    -18.426  0.1444E-05  0.1333E-01
    -18.333  0.6894E-07  0.1333E-01
    -18.240  0.2149E-08  0.1333E-01
    -18.146  0.4368E-10  0.1333E-01
    -18.053  0.5785E-12  0.1333E-01
    -17.959  0.4985E-14  0.1333E-01
    -17.866  0.3170E-16  0.1333E-01
    -17.773  0.0000E+00  0.1333E-01
    -17.679  0.0000E+00  0.1333E-01
    -17.586  0.0000E+00  0.1333E-01
    -17.492  0.0000E+00  0.1333E-01
    -17.399  0.0000E+00  0.1333E-01
    -17.306  0.0000E+00  0.1333E-01
    -17.212  0.0000E+00  0.1333E-01
    -17.119  0.0000E+00  0.1333E-01
    -17.025  0.0000E+00  0.1333E-01
    -16.932  0.0000E+00  0.1333E-01
    -16.839  0.0000E+00  0.1333E-01
    -16.745  0.0000E+00  0.1333E-01
    -16.652  0.0000E+00  0.1333E-01
    -16.558  0.0000E+00  0.1333E-01
    -16.465  0.0000E+00  0.1333E-01
    -16.372  0.0000E+00  0.1333E-01
    -16.278  0.0000E+00  0.1333E-01
    -16.185  0.0000E+00  0.1333E-01
    -16.091  0.0000E+00  0.1333E-01
    -15.998  0.0000E+00  0.1333E-01
    -15.905  0.0000E+00  0.1333E-01
    -15.811  0.0000E+00  0.1333E-01
    -15.718  0.0000E+00  0.1333E-01
    -15.624  0.0000E+00  0.1333E-01
    -15.531  0.0000E+00  0.1333E-01
    -15.438  0.0000E+00  0.1333E-01
    -15.344  0.0000E+00  0.1333E-01
    -15.251  0.0000E+00  0.1333E-01
    -15.157  0.0000E+00  0.1333E-01
    -15.064  0.0000E+00  0.1333E-01
    -14.971  0.0000E+00  0.1333E-01
    -14.877  0.3962E-17  0.1333E-01
    -14.784  0.9034E-15  0.1333E-01
    -14.690  0.1212E-12  0.1333E-01
    -14.597  0.1058E-10  0.1333E-01
    -14.504  0.6019E-09  0.1333E-01
    -14.410  0.2232E-07  0.1333E-01
    -14.317  0.5402E-06  0.1333E-01
    -14.223  0.8540E-05  0.1333E-01
    -14.130  0.8830E-04  0.1334E-01
    -14.037  0.5977E-03  0.1340E-01
    -13.943  0.2651E-02  0.1365E-01
    -13.850  0.7714E-02  0.1437E-01
    -13.756  0.1473E-01  0.1574E-01
    -13.663  0.1846E-01  0.1747E-01
    -13.570  0.1520E-01  0.1889E-01
    -13.476  0.8217E-02  0.1965E-01
    -13.383  0.2915E-02  0.1993E-01
    -13.289  0.6783E-03  0.1999E-01
    -13.196  0.1034E-03  0.2000E-01
    -13.103  0.1033E-04  0.2000E-01
    -13.009  0.6744E-06  0.2000E-01
    -12.916  0.2877E-07  0.2000E-01
    -12.823  0.8012E-09  0.2000E-01
    -12.729  0.1619E-10  0.2000E-01
    -12.636  0.1192E-09  0.2000E-01
    -12.542  0.5637E-08  0.2000E-01
    -12.449  0.1743E-06  0.2000E-01
    -12.356  0.3523E-05  0.2000E-01
    -12.262  0.4661E-04  0.2000E-01
    -12.169  0.4040E-03  0.2004E-01
    -12.075  0.2297E-02  0.2026E-01
    -11.982  0.8571E-02  0.2106E-01
    -11.889  0.2101E-01  0.2302E-01
    -11.795  0.3386E-01  0.2618E-01
    -11.702  0.3588E-01  0.2953E-01
    -11.608  0.2500E-01  0.3187E-01
    -11.515  0.1145E-01  0.3294E-01
    -11.422  0.3448E-02  0.3326E-01
    -11.328  0.6814E-03  0.3332E-01
    -11.235  0.8835E-04  0.3333E-01
    -11.141  0.7507E-05  0.3333E-01
    -11.048  0.4176E-06  0.3333E-01
    -10.955  0.1519E-07  0.3333E-01
    -10.861  0.3610E-09  0.3333E-01
    -10.768  0.5599E-11  0.3333E-01
    -10.674  0.5662E-13  0.3333E-01
    -10.581  0.3804E-15  0.3333E-01
    -10.488  0.0000E+00  0.3333E-01
    -10.394  0.0000E+00  0.3333E-01
    -10.301  0.0000E+00  0.3333E-01
    -10.207  0.0000E+00  0.3333E-01
    -10.114  0.0000E+00  0.3333E-01
    -10.021  0.0000E+00  0.3333E-01
     -9.927  0.0000E+00  0.3333E-01
     -9.834  0.0000E+00  0.3333E-01
     -9.740  0.0000E+00  0.3333E-01
     -9.647  0.3962E-17  0.3333E-01
     -9.554  0.1053E-14  0.3333E-01
     -9.460  0.1392E-12  0.3333E-01
     -9.367  0.1200E-10  0.3333E-01
     -9.273  0.6740E-09  0.3333E-01
     -9.180  0.2468E-07  0.3333E-01
     -9.087  0.5899E-06  0.3333E-01
     -8.993  0.9215E-05  0.3333E-01
     -8.900  0.9422E-04  0.3334E-01
     -8.806  0.6321E-03  0.3340E-01
     -8.713  0.2797E-02  0.3366E-01
     -8.620  0.8249E-02  0.3443E-01
     -8.526  0.1664E-01  0.3599E-01
     -8.433  0.2420E-01  0.3825E-01
     -8.339  0.2754E-01  0.4082E-01
     -8.246  0.2599E-01  0.4325E-01
     -8.153  0.1975E-01  0.4509E-01
     -8.059  0.1113E-01  0.4613E-01
     -7.966  0.4358E-02  0.4654E-01
     -7.872  0.1145E-02  0.4665E-01
     -7.779  0.1994E-03  0.4666E-01
     -7.686  0.2757E-04  0.4667E-01
     -7.592  0.5655E-04  0.4667E-01
     -7.499  0.4075E-03  0.4671E-01
     -7.405  0.1983E-02  0.4690E-01
     -7.312  0.6327E-02  0.4749E-01
     -7.219  0.1325E-01  0.4872E-01
     -7.125  0.1822E-01  0.5043E-01
     -7.032  0.1645E-01  0.5196E-01
     -6.938  0.9749E-02  0.5287E-01
     -6.845  0.3794E-02  0.5323E-01
     -6.752  0.9684E-03  0.5332E-01
     -6.658  0.1620E-03  0.5333E-01
     -6.565  0.1776E-04  0.5333E-01
     -6.471  0.1273E-05  0.5333E-01
     -6.378  0.5963E-07  0.5333E-01
     -6.285  0.1823E-08  0.5333E-01
     -6.191  0.3637E-10  0.5333E-01
     -6.098  0.4726E-12  0.5333E-01
     -6.004  0.3996E-14  0.5333E-01
     -5.911  0.2377E-16  0.5333E-01
     -5.818  0.0000E+00  0.5333E-01
     -5.724  0.0000E+00  0.5333E-01
     -5.631  0.0000E+00  0.5333E-01
     -5.537  0.0000E+00  0.5333E-01
     -5.444  0.0000E+00  0.5333E-01
     -5.351  0.0000E+00  0.5333E-01
     -5.257  0.0000E+00  0.5333E-01
     -5.164  0.0000E+00  0.5333E-01
     -5.070  0.0000E+00  0.5333E-01
     -4.977  0.0000E+00  0.5333E-01
     -4.884  0.0000E+00  0.5333E-01
     -4.790  0.0000E+00  0.5333E-01
     -4.697  0.0000E+00  0.5333E-01
     -4.603  0.0000E+00  0.5333E-01
     -4.510  0.0000E+00  0.5333E-01
     -4.417  0.0000E+00  0.5333E-01
     -4.323  0.0000E+00  0.5333E-01
     -4.230  0.0000E+00  0.5333E-01
     -4.136  0.0000E+00  0.5333E-01
     -4.043  0.0000E+00  0.5333E-01
     -3.950  0.0000E+00  0.5333E-01
     -3.856  0.0000E+00  0.5333E-01
     -3.763  0.0000E+00  0.5333E-01
     -3.670  0.0000E+00  0.5333E-01
     -3.576  0.0000E+00  0.5333E-01
     -3.483  0.0000E+00  0.5333E-01
     -3.389  0.0000E+00  0.5333E-01
     -3.296  0.0000E+00  0.5333E-01
     -3.203  0.0000E+00  0.5333E-01
     -3.109  0.0000E+00  0.5333E-01
     -3.016  0.0000E+00  0.5333E-01
     -2.922  0.0000E+00  0.5333E-01
     -2.829  0.0000E+00  0.5333E-01
     -2.736  0.0000E+00  0.5333E-01
     -2.642  0.0000E+00  0.5333E-01
     -2.549  0.2377E-16  0.5333E-01
     -2.455  0.4155E-14  0.5333E-01
     -2.362  0.4895E-12  0.5333E-01
     -2.269  0.3755E-10  0.5333E-01
     -2.175  0.1876E-08  0.5333E-01
     -2.082  0.6116E-07  0.5333E-01
     -1.988  0.1301E-05  0.5333E-01
     -1.895  0.1809E-04  0.5334E-01
     -1.802  0.1646E-03  0.5335E-01
     -1.708  0.9803E-03  0.5344E-01
     -1.615  0.3828E-02  0.5380E-01
     -1.521  0.9805E-02  0.5472E-01
     -1.428  0.1649E-01  0.5626E-01
     -1.335  0.1820E-01  0.5796E-01
     -1.241  0.1322E-01  0.5919E-01
     -1.148  0.6472E-02  0.5979E-01
     -1.054  0.3069E-02  0.6008E-01
     -0.961  0.4609E-02  0.6051E-01
     -0.868  0.1066E-01  0.6151E-01
     -0.774  0.1823E-01  0.6321E-01
     -0.681  0.2289E-01  0.6535E-01
     -0.587  0.2403E-01  0.6759E-01
     -0.494  0.2330E-01  0.6977E-01
     -0.401  0.1943E-01  0.7158E-01
     -0.307  0.1254E-01  0.7275E-01
     -0.214  0.7616E-02  0.7347E-01
     -0.120  0.8894E-02  0.7430E-01
     -0.027  0.1474E-01  0.7567E-01
      0.066  0.1848E-01  0.7740E-01
      0.160  0.1545E-01  0.7884E-01
      0.253  0.8491E-02  0.7963E-01
      0.347  0.3064E-02  0.7992E-01
      0.440  0.7251E-03  0.7999E-01
      0.533  0.1125E-03  0.8000E-01
      0.627  0.1142E-04  0.8000E-01
      0.720  0.7589E-06  0.8000E-01
      0.814  0.3294E-07  0.8000E-01
      0.907  0.9332E-09  0.8000E-01
      1.000  0.1724E-10  0.8000E-01
      1.094  0.2075E-12  0.8000E-01
      1.187  0.1627E-14  0.8000E-01
      1.281  0.7925E-17  0.8000E-01
      1.374  0.0000E+00  0.8000E-01
      1.467  0.0000E+00  0.8000E-01
      1.561  0.0000E+00  0.8000E-01
      1.654  0.0000E+00  0.8000E-01
      1.748  0.0000E+00  0.8000E-01
      1.841  0.0000E+00  0.8000E-01
      1.934  0.0000E+00  0.8000E-01
      2.028  0.0000E+00  0.8000E-01
