    6    6  300    1
  0.4500000E+04  0.3000000E-08  0.3000000E-08  0.3000000E-08  0.0000000E+00
  1.000000000000000E-004
  CAR 
 unknown system                          
     16      4     12
 
  0.2500000E+00  0.2500000E+00  0.2500000E+00  0.2500000E+00
    1      -23.991629   1.000000
    2      -19.098724   1.000000
    3      -13.706287   1.000000
    4      -11.790498   1.000000
    5      -11.773942   1.000000
    6       -8.478762   1.000000
    7       -8.259125   1.000000
    8       -7.147931   1.000000
    9       -1.405980   0.000000
   10       -0.759367   0.000000
   11       -0.492334   0.000000
   12        0.025428   0.000000
 
 -0.2500000E+00  0.2500000E+00  0.2500000E+00  0.2500000E+00
    1      -23.991630   1.000000
    2      -19.098726   1.000000
    3      -13.706285   1.000000
    4      -11.790496   1.000000
    5      -11.773941   1.000000
    6       -8.478763   1.000000
    7       -8.259134   1.000000
    8       -7.147931   1.000000
    9       -1.405968   0.000000
   10       -0.759370   0.000000
   11       -0.492331   0.000000
   12        0.027775   0.000000
 
  0.2500000E+00 -0.2500000E+00  0.2500000E+00  0.2500000E+00
    1      -23.991629   1.000000
    2      -19.098724   1.000000
    3      -13.706289   1.000000
    4      -11.790498   1.000000
    5      -11.773931   1.000000
    6       -8.478761   1.000000
    7       -8.259136   1.000000
    8       -7.147932   1.000000
    9       -1.405977   0.000000
   10       -0.759369   0.000000
   11       -0.492332   0.000000
   12        0.026936   0.000000
 
 -0.2500000E+00 -0.2500000E+00  0.2500000E+00  0.2500000E+00
    1      -23.991629   1.000000
    2      -19.098725   1.000000
    3      -13.706282   1.000000
    4      -11.790506   1.000000
    5      -11.773937   1.000000
    6       -8.478756   1.000000
    7       -8.259132   1.000000
    8       -7.147928   1.000000
    9       -1.405973   0.000000
   10       -0.759356   0.000000
   11       -0.492331   0.000000
   12        0.027730   0.000000
