 vasp.5.4.1 24Jun15 (build Jan 13 2020 12:58:22) complex                        
  
 executed on           IFC91_ompi date 2020.02.03  09:53:44
 running on   15 total cores
 each image running on    1 cores
 distrk:  each k-point on    1 cores,    1 groups
 distr:  one band on NCORES_PER_BAND=   1 cores,    1 groups


--------------------------------------------------------------------------------------------------------


 INCAR:
 POTCAR:    PAW_PBE H 15Jun2001                   
 POTCAR:    PAW_PBE C 08Apr2002                   
 POTCAR:    PAW_PBE N 08Apr2002                   
 POTCAR:    PAW_PBE H 15Jun2001                   
   VRHFIN =H: ultrasoft test                                                    
   LEXCH  = PE                                                                  
   EATOM  =    12.4884 eV,    0.9179 Ry                                         
                                                                                
   TITEL  = PAW_PBE H 15Jun2001                                                 
   LULTRA =        F    use ultrasoft PP ?                                      
   IUNSCR =        0    unscreen: 0-lin 1-nonlin 2-no                           
   RPACOR =    0.000    partial core radius                                     
   POMASS =    1.000; ZVAL   =    1.000    mass and valenz                      
   RCORE  =    1.100    outmost cutoff radius                                   
   RWIGS  =    0.700; RWIGS  =    0.370    wigner-seitz radius (au A)           
   ENMAX  =  250.000; ENMIN  =  200.000 eV                                      
   RCLOC  =    0.701    cutoff for local pot                                    
   LCOR   =        T    correct aug charges                                     
   LPAW   =        T    paw PP                                                  
   EAUG   =  400.000                                                            
   RMAX   =    1.123    core radius for proj-oper                               
   RAUG   =    1.200    factor for augmentation sphere                          
   RDEP   =    1.112    radius for radial grids                                 
   RDEPT  =    0.926    core radius for aug-charge                              
                                                                                
   Atomic configuration                                                         
    2 entries                                                                   
     n  l   j            E        occ.                                          
     1  0  0.50        -6.4927   1.0000                                         
     2  1  0.50        -3.4015   0.0000                                         
   Description                                                                  
     l       E           TYP  RCUT    TYP  RCUT                                 
     0     -6.4927494     23  1.100                                             
     0      6.8029130     23  1.100                                             
     1     -4.0817478     23  1.100                                             
  local pseudopotential read in
  atomic valenz-charges read in
  non local Contribution for L=           0  read in
    real space projection operators read in
  non local Contribution for L=           0  read in
    real space projection operators read in
  non local Contribution for L=           1  read in
    real space projection operators read in
    PAW grid and wavefunctions read in
 
   number of l-projection  operators is LMAX  =           3
   number of lm-projection operators is LMMAX =           5
 
 POTCAR:    PAW_PBE C 08Apr2002                   
   VRHFIN =C: s2p2                                                              
   LEXCH  = PE                                                                  
   EATOM  =   147.1560 eV,   10.8157 Ry                                         
                                                                                
   TITEL  = PAW_PBE C 08Apr2002                                                 
   LULTRA =        F    use ultrasoft PP ?                                      
   IUNSCR =        1    unscreen: 0-lin 1-nonlin 2-no                           
   RPACOR =    1.200    partial core radius                                     
   POMASS =   12.011; ZVAL   =    4.000    mass and valenz                      
   RCORE  =    1.500    outmost cutoff radius                                   
   RWIGS  =    1.630; RWIGS  =    0.863    wigner-seitz radius (au A)           
   ENMAX  =  400.000; ENMIN  =  300.000 eV                                      
   ICORE  =        2    local potential                                         
   LCOR   =        T    correct aug charges                                     
   LPAW   =        T    paw PP                                                  
   EAUG   =  644.873                                                            
   DEXC   =    0.000                                                            
   RMAX   =    1.529    core radius for proj-oper                               
   RAUG   =    1.300    factor for augmentation sphere                          
   RDEP   =    1.501    radius for radial grids                                 
   RDEPT  =    1.300    core radius for aug-charge                              
                                                                                
   Atomic configuration                                                         
    4 entries                                                                   
     n  l   j            E        occ.                                          
     1  0  0.50      -273.3789   2.0000                                         
     2  0  0.50       -13.7508   2.0000                                         
     2  1  0.50        -5.2854   2.0000                                         
     3  2  1.50        -5.4423   0.0000                                         
   Description                                                                  
     l       E           TYP  RCUT    TYP  RCUT                                 
     0    -13.7508458     23  1.200                                             
     0     -8.2022199     23  1.200                                             
     1     -5.2854383     23  1.500                                             
     1     34.0145650     23  1.500                                             
     2     -5.4423304      7  1.500                                             
  local pseudopotential read in
  partial core-charges read in
  partial kinetic energy density read in
  atomic valenz-charges read in
  non local Contribution for L=           0  read in
    real space projection operators read in
  non local Contribution for L=           0  read in
    real space projection operators read in
  non local Contribution for L=           1  read in
    real space projection operators read in
  non local Contribution for L=           1  read in
    real space projection operators read in
    PAW grid and wavefunctions read in
 
   number of l-projection  operators is LMAX  =           4
   number of lm-projection operators is LMMAX =           8
 
 POTCAR:    PAW_PBE N 08Apr2002                   
   VRHFIN =N: s2p3                                                              
   LEXCH  = PE                                                                  
   EATOM  =   264.5486 eV,   19.4438 Ry                                         
                                                                                
   TITEL  = PAW_PBE N 08Apr2002                                                 
   LULTRA =        F    use ultrasoft PP ?                                      
   IUNSCR =        1    unscreen: 0-lin 1-nonlin 2-no                           
   RPACOR =    1.200    partial core radius                                     
   POMASS =   14.001; ZVAL   =    5.000    mass and valenz                      
   RCORE  =    1.500    outmost cutoff radius                                   
   RWIGS  =    1.400; RWIGS  =    0.741    wigner-seitz radius (au A)           
   ENMAX  =  400.000; ENMIN  =  300.000 eV                                      
   ICORE  =        2    local potential                                         
   LCOR   =        T    correct aug charges                                     
   LPAW   =        T    paw PP                                                  
   EAUG   =  627.112                                                            
   DEXC   =    0.000                                                            
   RMAX   =    1.529    core radius for proj-oper                               
   RAUG   =    1.300    factor for augmentation sphere                          
   RDEP   =    1.514    radius for radial grids                                 
   RDEPT  =    1.338    core radius for aug-charge                              
                                                                                
   Atomic configuration                                                         
    4 entries                                                                   
     n  l   j            E        occ.                                          
     1  0  0.50      -384.7179   2.0000                                         
     2  0  0.50       -18.5828   2.0000                                         
     2  1  0.50        -7.0898   3.0000                                         
     3  2  1.50        -6.8029   0.0000                                         
   Description                                                                  
     l       E           TYP  RCUT    TYP  RCUT                                 
     0    -18.5828119     23  1.200                                             
     0    -13.5018863     23  1.200                                             
     1     -7.0897853     23  1.500                                             
     1      9.5240782     23  1.500                                             
     2     -6.8029130      7  1.500                                             
  local pseudopotential read in
  partial core-charges read in
  partial kinetic energy density read in
  atomic valenz-charges read in
  non local Contribution for L=           0  read in
    real space projection operators read in
  non local Contribution for L=           0  read in
    real space projection operators read in
  non local Contribution for L=           1  read in
    real space projection operators read in
  non local Contribution for L=           1  read in
    real space projection operators read in
    PAW grid and wavefunctions read in
 
   number of l-projection  operators is LMAX  =           4
   number of lm-projection operators is LMMAX =           8
 

 ----------------------------------------------------------------------------- 
|                                                                             |
|  ADVICE TO THIS USER RUNNING 'VASP/VAMP'   (HEAR YOUR MASTER'S VOICE ...):  |
|                                                                             |
|      You have a (more or less) 'small supercell' and for smaller cells      |
|      it is recommended  to use the reciprocal-space projection scheme!      |
|      The real space optimization is not  efficient for small cells and it   |
|      is also less accurate ...                                              |
|      Therefore set LREAL=.FALSE. in the  INCAR file                         |
|                                                                             |
 ----------------------------------------------------------------------------- 

 Optimization of the real space projectors (new method)

 maximal supplied QI-value         = 34.20
 optimisation between [QCUT,QGAM] = [  9.92, 20.18] = [ 27.55,114.04] Ry 
 Optimized for a Real-space Cutoff    1.26 Angstroem

   l    n(q)    QCUT    max X(q) W(low)/X(q) W(high)/X(q)  e(spline) 
   0      8     9.919    19.460    0.50E-03    0.23E-03    0.29E-06
   0      8     9.919    12.209    0.48E-03    0.23E-03    0.28E-06
   1      7     9.919     4.655    0.17E-03    0.75E-03    0.30E-06
 Optimization of the real space projectors (new method)

 maximal supplied QI-value         = 25.13
 optimisation between [QCUT,QGAM] = [ 10.05, 20.36] = [ 28.30,116.06] Ry 
 Optimized for a Real-space Cutoff    1.30 Angstroem

   l    n(q)    QCUT    max X(q) W(low)/X(q) W(high)/X(q)  e(spline) 
   0      8    10.053   115.676    0.49E-03    0.72E-03    0.18E-06
   0      8    10.053    87.132    0.49E-03    0.71E-03    0.18E-06
   1      7    10.053     4.429    0.32E-03    0.31E-03    0.18E-06
   1      7    10.053     2.733    0.23E-03    0.19E-03    0.20E-06
 Optimization of the real space projectors (new method)

 maximal supplied QI-value         = 25.13
 optimisation between [QCUT,QGAM] = [ 10.05, 20.36] = [ 28.30,116.06] Ry 
 Optimized for a Real-space Cutoff    1.65 Angstroem

   l    n(q)    QCUT    max X(q) W(low)/X(q) W(high)/X(q)  e(spline) 
   0     10    10.053    79.467    0.76E-04    0.72E-04    0.56E-06
   0     10    10.053    66.151    0.76E-04    0.72E-04    0.55E-06
   1     10    10.053     8.350    0.25E-03    0.92E-03    0.41E-05
   1     10    10.053     5.531    0.27E-03    0.10E-02    0.45E-05
  PAW_PBE H 15Jun2001                   :
 energy of atom  1       EATOM=  -12.4884
 kinetic energy error for atom=    0.0098 (will be added to EATOM!!)
  PAW_PBE C 08Apr2002                   :
 energy of atom  2       EATOM= -147.1560
 kinetic energy error for atom=    0.0288 (will be added to EATOM!!)
  PAW_PBE N 08Apr2002                   :
 energy of atom  3       EATOM= -264.5486
 kinetic energy error for atom=    0.0736 (will be added to EATOM!!)
 
 
 POSCAR: H3 C2 N1                                
  positions in direct lattice
  velocities in cartesian coordinates
 exchange correlation table for  LEXCH =        8
   RHO(1)=    0.500       N(1)  =     2000
   RHO(2)=  100.500       N(2)  =     4000

 VTST: version 3.2, (02/03/18)

 CHAIN: initializing optimizer
 
 OPT: Using FIRE optimizer
 OPT: FIRE, Init
 OPT: FIRE, MAXMOVE       0.20000
 OPT: FIRE, TIMESTEP      0.10000
 OPT: FIRE, FTIMEMAX      1.00000
 OPT: FIRE, FTIMEINC      1.10000
 OPT: FIRE, FTIMEDEC      0.50000
 OPT: FIRE, FALPHADEC     0.99000
 OPT: FIRE, FALPHA        0.10000
 OPT: FIRE, FNMIN         5
 
 CHAIN: Read ICHAIN            0
 CHAIN: Running the NEB
 NEB:          SPRING     -5.000000
 NEB:          LCLIMB      T
 NEB:     LTANGENTOLD      F
 NEB:           LDNEB      F
 NEB:        LDNEBORG      F
 NEB:        LNEBCELL      F
 NEB:          EFIRST      0.000000
 NEB:           ELAST      0.000000
 
 POSCAR: H3 C2 N1                                
  positions in direct lattice
  No initial velocities read in
 
 POSCAR: H3 C2 N1                                
  positions in direct lattice
  No initial velocities read in
 


--------------------------------------------------------------------------------------------------------


 ion  position               nearest neighbor table
   1  0.478  0.465  0.502-   4 1.10
   2  0.469  0.519  0.480-   4 1.10
   3  0.474  0.512  0.539-   4 1.09
   4  0.485  0.500  0.506-   3 1.09   1 1.10   2 1.10   6 1.43
   5  0.561  0.499  0.474-   6 1.18
   6  0.532  0.506  0.500-   5 1.18   4 1.43
 
  LATTYP: Found a simple cubic cell.
 ALAT       =    30.0000000000
  
  Lattice vectors:
  
 A1 = (  30.0000000000,   0.0000000000,   0.0000000000)
 A2 = (   0.0000000000,  30.0000000000,   0.0000000000)
 A3 = (   0.0000000000,   0.0000000000,  30.0000000000)


Analysis of symmetry for initial positions (statically):
=====================================================================
 Subroutine PRICEL returns:
 Original cell was already a primitive cell.
 

 Routine SETGRP: Setting up the symmetry group for a 
 simple cubic supercell.


 Subroutine GETGRP returns: Found  1 space group operations
 (whereof  1 operations were pure point group operations)
 out of a pool of 48 trial point group operations.


The static configuration has the point symmetry C_1 .


Analysis of symmetry for dynamics (positions and initial velocities):
=====================================================================
 Subroutine PRICEL returns:
 Original cell was already a primitive cell.
 

 Routine SETGRP: Setting up the symmetry group for a 
 simple cubic supercell.


 Subroutine GETGRP returns: Found  1 space group operations
 (whereof  1 operations were pure point group operations)
 out of a pool of 48 trial point group operations.


The dynamic configuration has the point symmetry C_1 .
 
 
 KPOINTS: Mo2C                                    

Automatic generation of k-mesh.
Space group operators:
 irot       det(A)        alpha          n_x          n_y          n_z        tau_x        tau_y        tau_z
    1     1.000000     0.000000     1.000000     0.000000     0.000000     0.000000     0.000000     0.000000
 
 Subroutine IBZKPT returns following result:
 ===========================================
 
 Found      4 irreducible k-points:
 
 Following reciprocal coordinates:
            Coordinates               Weight
  0.250000  0.250000  0.250000      2.000000
 -0.250000  0.250000  0.250000      2.000000
  0.250000 -0.250000  0.250000      2.000000
 -0.250000 -0.250000  0.250000      2.000000
 
 Following cartesian coordinates:
            Coordinates               Weight
  0.008333  0.008333  0.008333      2.000000
 -0.008333  0.008333  0.008333      2.000000
  0.008333 -0.008333  0.008333      2.000000
 -0.008333 -0.008333  0.008333      2.000000
 


--------------------------------------------------------------------------------------------------------




 Dimension of arrays:
   k-points           NKPTS =      4   k-points in BZ     NKDIM =      4   number of bands    NBANDS=     12
   number of dos      NEDOS =    301   number of ions     NIONS =      6
   non local maximal  LDIM  =      4   non local SUM 2l+1 LMDIM =      8
   total plane-waves  NPLWV = ******
   max r-space proj   IRMAX =   2395   max aug-charges    IRDMAX=   1738
   dimension x,y,z NGX =   150 NGY =  150 NGZ =  150
   dimension x,y,z NGXF=   300 NGYF=  300 NGZF=  300
   support grid    NGXF=   300 NGYF=  300 NGZF=  300
   ions per type =               3   2   1
 NGX,Y,Z   is equivalent  to a cutoff of   8.31,  8.31,  8.31 a.u.
 NGXF,Y,Z  is equivalent  to a cutoff of  16.62, 16.62, 16.62 a.u.


 I would recommend the setting:
   dimension x,y,z NGX =   147 NGY =  147 NGZ =  147
 SYSTEM =  unknown system                          
 POSCAR =  H3 C2 N1                                

 Startparameter for this run:
   NWRITE =      2    write-flag & timer
   PREC   = normal    normal or accurate (medium, high low for compatibility)
   ISTART =      0    job   : 0-new  1-cont  2-samecut
   ICHARG =      2    charge: 1-file 2-atom 10-const
   ISPIN  =      1    spin polarized calculation?
   LNONCOLLINEAR =      F non collinear calculations
   LSORBIT =      F    spin-orbit coupling
   INIWAV =      1    electr: 0-lowe 1-rand  2-diag
   LASPH  =      F    aspherical Exc in radial PAW
   METAGGA=      F    non-selfconsistent MetaGGA calc.

 Electronic Relaxation 1
   ENCUT  =  400.0 eV  29.40 Ry    5.42 a.u.  48.92 48.92 48.92*2*pi/ulx,y,z
   ENINI  =  400.0     initial cutoff
   ENAUG  =  644.9 eV  augmentation charge cutoff
   NELM   =    500;   NELMIN=  6; NELMDL= -5     # of ELM steps 
   EDIFF  = 0.1E-03   stopping-criterion for ELM
   LREAL  =      T    real-space projection
   NLSPLINE    = F    spline interpolate recip. space projectors
   LCOMPAT=      F    compatible to vasp.4.4
   GGA_COMPAT  = T    GGA compatible to vasp.4.4-vasp.4.6
   LMAXPAW     = -100 max onsite density
   LMAXMIX     =    2 max onsite mixed and CHGCAR
   VOSKOWN=      0    Vosko Wilk Nusair interpolation
   ROPT   =   -0.00050  -0.00050  -0.00050
 Ionic relaxation
   EDIFFG = -.1E+00   stopping-criterion for IOM
   NSW    =    300    number of steps for IOM
   NBLOCK =      1;   KBLOCK =    300    inner block; outer block 
   IBRION =      3    ionic relax: 0-MD 1-quasi-New 2-CG
   NFREE  =      0    steps in history (QN), initial steepest desc. (CG)
   ISIF   =      2    stress and relaxation
   IWAVPR =     11    prediction:  0-non 1-charg 2-wave 3-comb
   ISYM   =      2    0-nonsym 1-usesym 2-fastsym
   LCORR  =      T    Harris-Foulkes like correction to forces

   POTIM  = 0.0000    time-step for ionic-motion
   TEIN   =    0.0    initial temperature
   TEBEG  =    0.0;   TEEND  =   0.0 temperature during run
   SMASS  =   2.00    Nose mass-parameter (am)
   estimated Nose-frequenzy (Omega)   =  0.12E+10 period in steps =  0.00 mass=   0.137E-25a.u.
   SCALEE = 1.0000    scale energy and forces
   NPACO  =    256;   APACO  = 16.0  distance and # of slots for P.C.
   PSTRESS=    0.0 pullay stress

  Mass of Ions in am
   POMASS =   1.00 12.01 14.00
  Ionic Valenz
   ZVAL   =   1.00  4.00  5.00
  Atomic Wigner-Seitz radii
   RWIGS  =  -1.00 -1.00 -1.00
  virtual crystal weights 
   VCA    =   1.00  1.00  1.00
   NELECT =      16.0000    total number of electrons
   NUPDOWN=      -1.0000    fix difference up-down

 DOS related values:
   EMIN   =  10.00;   EMAX   =-10.00  energy-range for DOS
   EFERMI =   0.00
   ISMEAR =     0;   SIGMA  =   0.20  broadening in eV -4-tet -1-fermi 0-gaus

 Electronic relaxation 2 (details)
   IALGO  =     38    algorithm
   LDIAG  =      T    sub-space diagonalisation (order eigenvalues)
   LSUBROT=      F    optimize rotation matrix (better conditioning)
   TURBO    =      0    0=normal 1=particle mesh
   IRESTART =      0    0=no restart 2=restart with 2 vectors
   NREBOOT  =      0    no. of reboots
   NMIN     =      0    reboot dimension
   EREF     =   0.00    reference energy to select bands
   IMIX   =      4    mixing-type and parameters
     AMIX     =   0.40;   BMIX     =  1.00
     AMIX_MAG =   1.60;   BMIX_MAG =  1.00
     AMIN     =   0.10
     WC   =   100.;   INIMIX=   1;  MIXPRE=   1;  MAXMIX= -45

 Intra band minimization:
   WEIMIN = 0.0010     energy-eigenvalue tresh-hold
   EBREAK =  0.21E-05  absolut break condition
   DEPER  =   0.30     relativ break condition  

   TIME   =   0.40     timestep for ELM

  volume/ion in A,a.u.               =    4500.00     30367.50
  Fermi-wavevector in a.u.,A,eV,Ry     =   0.137508  0.259852  0.257264  0.018908
  Thomas-Fermi vector in A             =   0.790710
 
 Write flags
   LWAVE  =      F    write WAVECAR
   LCHARG =      F    write CHGCAR
   LVTOT  =      F    write LOCPOT, total local potential
   LVHAR  =      F    write LOCPOT, Hartree potential only
   LELF   =      F    write electronic localiz. function (ELF)
   LORBIT =      0    0 simple, 1 ext, 2 COOP (PROOUT)


 Dipole corrections
   LMONO  =      F    monopole corrections only (constant potential shift)
   LDIPOL =      F    correct potential (dipole corrections)
   IDIPOL =      0    1-x, 2-y, 3-z, 4-all directions 
   EPSILON=  1.0000000 bulk dielectric constant

 Exchange correlation treatment:
   GGA     =    PE    GGA type
   LEXCH   =     8    internal setting for exchange type
   VOSKOWN=      0    Vosko Wilk Nusair interpolation
   LHFCALC =     F    Hartree Fock is set to
   LHFONE  =     F    Hartree Fock one center treatment
   AEXX    =    0.0000 exact exchange contribution

 Linear response parameters
   LEPSILON=     F    determine dielectric tensor
   LRPA    =     F    only Hartree local field effects (RPA)
   LNABLA  =     F    use nabla operator in PAW spheres
   LVEL    =     F    velocity operator in full k-point grid
   LINTERFAST=   F  fast interpolation
   KINTER  =     0    interpolate to denser k-point grid
   CSHIFT  =0.1000    complex shift for real part using Kramers Kronig
   OMEGAMAX=  -1.0    maximum frequency
   DEG_THRESHOLD= 0.2000000E-02 threshold for treating states as degnerate
   RTIME   =    0.100 relaxation time in fs

 Orbital magnetization related:
   ORBITALMAG=     F  switch on orbital magnetization
   LCHIMAG   =     F  perturbation theory with respect to B field
   DQ        =  0.001000  dq finite difference perturbation B field



--------------------------------------------------------------------------------------------------------


 quickmin algorithm: (dynamic with friction)
 charge density and potential will be updated during run
 non-spin polarized calculation
 Variant of blocked Davidson
 Davidson routine will perform the subspace rotation
 perform sub-space diagonalisation
    after iterative eigenvector-optimisation
 modified Broyden-mixing scheme, WC =      100.0
 initial mixing is a Kerker type mixing with AMIX =  0.4000 and BMIX =      1.0000
 Hartree-type preconditioning will be used
 using additional bands            4
 real space projection scheme for non local part
 use partial core corrections
 calculate Harris-corrections to forces 
   (improved forces if not selfconsistent)
 use gradient corrections 
 use of overlap-Matrix (Vanderbilt PP)
 Gauss-broadening in eV      SIGMA  =   0.20


--------------------------------------------------------------------------------------------------------


  energy-cutoff  :      400.00
  volume of cell :    27000.00
      direct lattice vectors                 reciprocal lattice vectors
    30.000000000  0.000000000  0.000000000     0.033333333  0.000000000  0.000000000
     0.000000000 30.000000000  0.000000000     0.000000000  0.033333333  0.000000000
     0.000000000  0.000000000 30.000000000     0.000000000  0.000000000  0.033333333

  length of vectors
    30.000000000 30.000000000 30.000000000     0.033333333  0.033333333  0.033333333


 
 k-points in units of 2pi/SCALE and weight: Mo2C                                    
   0.00833333  0.00833333  0.00833333       0.250
  -0.00833333  0.00833333  0.00833333       0.250
   0.00833333 -0.00833333  0.00833333       0.250
  -0.00833333 -0.00833333  0.00833333       0.250
 
 k-points in reciprocal lattice and weights: Mo2C                                    
   0.25000000  0.25000000  0.25000000       0.250
  -0.25000000  0.25000000  0.25000000       0.250
   0.25000000 -0.25000000  0.25000000       0.250
  -0.25000000 -0.25000000  0.25000000       0.250
 
 position of ions in fractional coordinates (direct lattice) 
   0.47804612  0.46450456  0.50206761
   0.46879082  0.51897057  0.47951255
   0.47430688  0.51176089  0.53879483
   0.48542006  0.50013581  0.50614701
   0.56107047  0.49913274  0.47354912
   0.53237571  0.50551437  0.49992883
 
 position of ions in cartesian coordinates  (Angst):
  14.34138346 13.93513668 15.06202839
  14.06372470 15.56911699 14.38537646
  14.22920642 15.35282680 16.16384504
  14.56260184 15.00407436 15.18441026
  16.83211417 14.97398234 14.20647348
  15.97127124 15.16543123 14.99786493
 


--------------------------------------------------------------------------------------------------------


 k-point  1 :   0.2500 0.2500 0.2500  plane waves:  490454
 k-point  2 :  -0.2500 0.2500 0.2500  plane waves:  490454
 k-point  3 :   0.2500-0.2500 0.2500  plane waves:  490454
 k-point  4 :  -0.2500-0.2500 0.2500  plane waves:  490454

 maximum and minimum number of plane-waves per node :    490454   490454

 maximum number of plane-waves:    490454
 maximum index in each direction: 
   IXMAX=   49   IYMAX=   49   IZMAX=   48
   IXMIN=  -49   IYMIN=  -49   IZMIN=  -49

 WARNING: aliasing errors must be expected set NGX to 198 to avoid them
 WARNING: aliasing errors must be expected set NGY to 198 to avoid them
 WARNING: aliasing errors must be expected set NGZ to 196 to avoid them
 aliasing errors are usually negligible using standard VASP settings
 and one can safely disregard these warnings

 serial   3D FFT for wavefunctions
 parallel 3D FFT for charge:
    minimum data exchange during FFTs selected (reduces bandwidth)


 total amount of memory used by VASP on root node  3203889. kBytes
========================================================================

   base      :      30000. kBytes
   nonlr-proj:        693. kBytes
   fftplans  :     924480. kBytes
   grid      :    1872000. kBytes
   one-center:         18. kBytes
   wavefun   :     376698. kBytes
 
     INWAV:  cpu time    0.0010: real time    0.0004
 Broyden mixing: mesh for mixing (old mesh)
   NGX = 97   NGY = 97   NGZ = 97
  (NGX  =300   NGY  =300   NGZ  =300)
  gives a total of 912673 points

 initial charge density was supplied:
 charge density of overlapping atoms calculated
 number of electron      16.0000000 magnetization 
 keeping initial charge density in first step


--------------------------------------------------------------------------------------------------------


 Maximum index for non-local projection operator         2275
 Maximum index for augmentation-charges         1500 (set IRDMAX)


--------------------------------------------------------------------------------------------------------


 First call to EWALD:  gamma=   0.059
 Maximum number of real-space cells 3x 3x 3
 Maximum number of reciprocal cells 3x 3x 3

 FEWALD executed in parallel
    FEWALD:  cpu time    0.0020: real time    0.0020


----------------------------------------- Iteration    1(   1)  ---------------------------------------


    POTLOK:  cpu time   18.0173: real time   18.0033
    SETDIJ:  cpu time    0.0080: real time    0.0080
     EDDAV:  cpu time   88.0926: real time   88.0192
       DOS:  cpu time    0.0000: real time    0.0003
    --------------------------------------------
      LOOP:  cpu time  106.1219: real time  106.0353

 eigenvalue-minimisations  :   160
 total energy-change (2. order) : 0.1126333E+03  (-0.2144910E+03)
 number of electron      16.0000000 magnetization 
 augmentation part       16.0000000 magnetization 

 Free energy of the ion-electron system (eV)
  ---------------------------------------------------
  alpha Z        PSCENC =         0.04144063
  Ewald energy   TEWEN  =       708.31708016
  -Hartree energ DENC   =     -1123.11370288
  -exchange      EXHF   =         0.00000000
  -V(xc)+E(xc)   XCENC  =        51.41780945
  PAW double counting   =       428.37890668     -430.73533574
  entropy T*S    EENTRO =        -0.19985254
  eigenvalues    EBANDS =      -117.63838126
  atomic energy  EATOM  =       596.16534815
  Solvation  Ediel_sol  =         0.00000000
  ---------------------------------------------------
  free energy    TOTEN  =       112.63331266 eV

  energy without entropy =      112.83316520  energy(sigma->0) =      112.73323893


--------------------------------------------------------------------------------------------------------




----------------------------------------- Iteration    1(   2)  ---------------------------------------


     EDDAV:  cpu time  105.1840: real time  105.0982
       DOS:  cpu time    0.0000: real time    0.0002
    --------------------------------------------
      LOOP:  cpu time  105.1860: real time  105.1011

 eigenvalue-minimisations  :   192
 total energy-change (2. order) :-0.1173474E+03  (-0.1150024E+03)
 number of electron      16.0000000 magnetization 
 augmentation part       16.0000000 magnetization 

 Free energy of the ion-electron system (eV)
  ---------------------------------------------------
  alpha Z        PSCENC =         0.04144063
  Ewald energy   TEWEN  =       708.31708016
  -Hartree energ DENC   =     -1123.11370288
  -exchange      EXHF   =         0.00000000
  -V(xc)+E(xc)   XCENC  =        51.41780945
  PAW double counting   =       428.37890668     -430.73533574
  entropy T*S    EENTRO =         0.00000000
  eigenvalues    EBANDS =      -235.18565688
  atomic energy  EATOM  =       596.16534815
  Solvation  Ediel_sol  =         0.00000000
  ---------------------------------------------------
  free energy    TOTEN  =        -4.71411042 eV

  energy without entropy =       -4.71411042  energy(sigma->0) =       -4.71411042


--------------------------------------------------------------------------------------------------------




----------------------------------------- Iteration    1(   3)  ---------------------------------------


     EDDAV:  cpu time   79.0080: real time   78.9430
       DOS:  cpu time    0.0000: real time    0.0002
    --------------------------------------------
      LOOP:  cpu time   79.0080: real time   78.9461

 eigenvalue-minimisations  :   128
 total energy-change (2. order) :-0.3052083E+02  (-0.3033724E+02)
 number of electron      16.0000000 magnetization 
 augmentation part       16.0000000 magnetization 

 Free energy of the ion-electron system (eV)
  ---------------------------------------------------
  alpha Z        PSCENC =         0.04144063
  Ewald energy   TEWEN  =       708.31708016
  -Hartree energ DENC   =     -1123.11370288
  -exchange      EXHF   =         0.00000000
  -V(xc)+E(xc)   XCENC  =        51.41780945
  PAW double counting   =       428.37890668     -430.73533574
  entropy T*S    EENTRO =         0.00000000
  eigenvalues    EBANDS =      -265.70648937
  atomic energy  EATOM  =       596.16534815
  Solvation  Ediel_sol  =         0.00000000
  ---------------------------------------------------
  free energy    TOTEN  =       -35.23494292 eV

  energy without entropy =      -35.23494292  energy(sigma->0) =      -35.23494292


--------------------------------------------------------------------------------------------------------




----------------------------------------- Iteration    1(   4)  ---------------------------------------


     EDDAV:  cpu time   79.6799: real time   79.6147
       DOS:  cpu time    0.0000: real time    0.0002
    --------------------------------------------
      LOOP:  cpu time   79.6809: real time   79.6179

 eigenvalue-minimisations  :   128
 total energy-change (2. order) :-0.3444997E+01  (-0.3400464E+01)
 number of electron      16.0000000 magnetization 
 augmentation part       16.0000000 magnetization 

 Free energy of the ion-electron system (eV)
  ---------------------------------------------------
  alpha Z        PSCENC =         0.04144063
  Ewald energy   TEWEN  =       708.31708016
  -Hartree energ DENC   =     -1123.11370288
  -exchange      EXHF   =         0.00000000
  -V(xc)+E(xc)   XCENC  =        51.41780945
  PAW double counting   =       428.37890668     -430.73533574
  entropy T*S    EENTRO =         0.00000000
  eigenvalues    EBANDS =      -269.15148685
  atomic energy  EATOM  =       596.16534815
  Solvation  Ediel_sol  =         0.00000000
  ---------------------------------------------------
  free energy    TOTEN  =       -38.67994039 eV

  energy without entropy =      -38.67994039  energy(sigma->0) =      -38.67994039


--------------------------------------------------------------------------------------------------------




----------------------------------------- Iteration    1(   5)  ---------------------------------------


     EDDAV:  cpu time   71.2292: real time   71.1719
       DOS:  cpu time    0.0000: real time    0.0002
    CHARGE:  cpu time    5.8301: real time    5.8253
    MIXING:  cpu time    0.6009: real time    0.6011
    --------------------------------------------
      LOOP:  cpu time   77.6622: real time   77.6020

 eigenvalue-minimisations  :   112
 total energy-change (2. order) :-0.9945116E-01  (-0.9856400E-01)
 number of electron      15.9999985 magnetization 
 augmentation part        0.5129868 magnetization 

 Broyden mixing:
  rms(total) = 0.10548E+01    rms(broyden)= 0.10541E+01
  rms(prec ) = 0.10912E+01
  weight for this iteration     100.00

 Free energy of the ion-electron system (eV)
  ---------------------------------------------------
  alpha Z        PSCENC =         0.04144063
  Ewald energy   TEWEN  =       708.31708016
  -Hartree energ DENC   =     -1123.11370288
  -exchange      EXHF   =         0.00000000
  -V(xc)+E(xc)   XCENC  =        51.41780945
  PAW double counting   =       428.37890668     -430.73533574
  entropy T*S    EENTRO =         0.00000000
  eigenvalues    EBANDS =      -269.25093800
  atomic energy  EATOM  =       596.16534815
  Solvation  Ediel_sol  =         0.00000000
  ---------------------------------------------------
  free energy    TOTEN  =       -38.77939155 eV

  energy without entropy =      -38.77939155  energy(sigma->0) =      -38.77939155


--------------------------------------------------------------------------------------------------------




----------------------------------------- Iteration    1(   6)  ---------------------------------------


    POTLOK:  cpu time   19.1651: real time   19.1488
    SETDIJ:  cpu time    0.0080: real time    0.0080
     EDDAV:  cpu time   75.0976: real time   75.0357
       DOS:  cpu time    0.0000: real time    0.0002
    CHARGE:  cpu time    5.8651: real time    5.8604
    MIXING:  cpu time    0.6729: real time    0.6722
    --------------------------------------------
      LOOP:  cpu time  100.8097: real time  100.7295

 eigenvalue-minimisations  :   120
 total energy-change (2. order) : 0.2684300E+01  (-0.4513543E+00)
 number of electron      15.9999984 magnetization 
 augmentation part        0.4653627 magnetization 

 Broyden mixing:
  rms(total) = 0.56856E+00    rms(broyden)= 0.56846E+00
  rms(prec ) = 0.58396E+00
  weight for this iteration     100.00

 eigenvalues of (default mixing * dielectric matrix)
  average eigenvalue GAMMA=   1.5468
  1.5468

 Free energy of the ion-electron system (eV)
  ---------------------------------------------------
  alpha Z        PSCENC =         0.04144063
  Ewald energy   TEWEN  =       708.31708016
  -Hartree energ DENC   =     -1152.51473650
  -exchange      EXHF   =         0.00000000
  -V(xc)+E(xc)   XCENC  =        53.02673586
  PAW double counting   =       716.29396655     -718.97999318
  entropy T*S    EENTRO =         0.00000000
  eigenvalues    EBANDS =      -238.44493356
  atomic energy  EATOM  =       596.16534815
  Solvation  Ediel_sol  =         0.00000000
  ---------------------------------------------------
  free energy    TOTEN  =       -36.09509190 eV

  energy without entropy =      -36.09509190  energy(sigma->0) =      -36.09509190


--------------------------------------------------------------------------------------------------------




----------------------------------------- Iteration    1(   7)  ---------------------------------------


    POTLOK:  cpu time   19.5230: real time   19.5080
    SETDIJ:  cpu time    0.0080: real time    0.0081
     EDDAV:  cpu time   76.8753: real time   76.8122
       DOS:  cpu time    0.0000: real time    0.0002
    CHARGE:  cpu time    5.8391: real time    5.8348
    MIXING:  cpu time    0.6939: real time    0.6945
    --------------------------------------------
      LOOP:  cpu time  102.9424: real time  102.8612

 eigenvalue-minimisations  :   124
 total energy-change (2. order) : 0.6742035E+00  (-0.1663473E+00)
 number of electron      15.9999984 magnetization 
 augmentation part        0.4541493 magnetization 

 Broyden mixing:
  rms(total) = 0.24003E+00    rms(broyden)= 0.23997E+00
  rms(prec ) = 0.24554E+00
  weight for this iteration     100.00

 eigenvalues of (default mixing * dielectric matrix)
  average eigenvalue GAMMA=   1.5204
  0.9795  2.0614

 Free energy of the ion-electron system (eV)
  ---------------------------------------------------
  alpha Z        PSCENC =         0.04144063
  Ewald energy   TEWEN  =       708.31708016
  -Hartree energ DENC   =     -1171.17801677
  -exchange      EXHF   =         0.00000000
  -V(xc)+E(xc)   XCENC  =        54.22043159
  PAW double counting   =      1071.51058856    -1074.37447986
  entropy T*S    EENTRO =         0.00000000
  eigenvalues    EBANDS =      -220.12328087
  atomic energy  EATOM  =       596.16534815
  Solvation  Ediel_sol  =         0.00000000
  ---------------------------------------------------
  free energy    TOTEN  =       -35.42088840 eV

  energy without entropy =      -35.42088840  energy(sigma->0) =      -35.42088840


--------------------------------------------------------------------------------------------------------




----------------------------------------- Iteration    1(   8)  ---------------------------------------


    POTLOK:  cpu time   19.3911: real time   19.3745
    SETDIJ:  cpu time    0.0080: real time    0.0080
     EDDAV:  cpu time   78.9460: real time   78.8823
       DOS:  cpu time    0.0000: real time    0.0002
    CHARGE:  cpu time    5.7811: real time    5.7764
    MIXING:  cpu time    0.7149: real time    0.7143
    --------------------------------------------
      LOOP:  cpu time  104.8431: real time  104.7595

 eigenvalue-minimisations  :   128
 total energy-change (2. order) : 0.7995165E-01  (-0.1977373E-01)
 number of electron      15.9999985 magnetization 
 augmentation part        0.4434745 magnetization 

 Broyden mixing:
  rms(total) = 0.97546E-01    rms(broyden)= 0.97521E-01
  rms(prec ) = 0.10136E+00
  weight for this iteration     100.00

 eigenvalues of (default mixing * dielectric matrix)
  average eigenvalue GAMMA=   1.5838
  2.3236  1.6247  0.8032

 Free energy of the ion-electron system (eV)
  ---------------------------------------------------
  alpha Z        PSCENC =         0.04144063
  Ewald energy   TEWEN  =       708.31708016
  -Hartree energ DENC   =     -1178.55401792
  -exchange      EXHF   =         0.00000000
  -V(xc)+E(xc)   XCENC  =        54.69958078
  PAW double counting   =      1255.76904004    -1258.66782587
  entropy T*S    EENTRO =         0.00000000
  eigenvalues    EBANDS =      -213.11158273
  atomic energy  EATOM  =       596.16534815
  Solvation  Ediel_sol  =         0.00000000
  ---------------------------------------------------
  free energy    TOTEN  =       -35.34093676 eV

  energy without entropy =      -35.34093676  energy(sigma->0) =      -35.34093676


--------------------------------------------------------------------------------------------------------




----------------------------------------- Iteration    1(   9)  ---------------------------------------


    POTLOK:  cpu time   19.4680: real time   19.4528
    SETDIJ:  cpu time    0.0080: real time    0.0081
     EDDAV:  cpu time   68.7126: real time   68.6568
       DOS:  cpu time    0.0000: real time    0.0002
    CHARGE:  cpu time    5.8311: real time    5.8259
    MIXING:  cpu time    0.7849: real time    0.7836
    --------------------------------------------
      LOOP:  cpu time   94.8066: real time   94.7310

 eigenvalue-minimisations  :   108
 total energy-change (2. order) : 0.1914499E-01  (-0.3155862E-02)
 number of electron      15.9999985 magnetization 
 augmentation part        0.4438445 magnetization 

 Broyden mixing:
  rms(total) = 0.23804E-01    rms(broyden)= 0.23789E-01
  rms(prec ) = 0.29023E-01
  weight for this iteration     100.00

 eigenvalues of (default mixing * dielectric matrix)
  average eigenvalue GAMMA=   1.4887
  2.2267  1.7117  0.8429  1.1733

 Free energy of the ion-electron system (eV)
  ---------------------------------------------------
  alpha Z        PSCENC =         0.04144063
  Ewald energy   TEWEN  =       708.31708016
  -Hartree energ DENC   =     -1179.74988907
  -exchange      EXHF   =         0.00000000
  -V(xc)+E(xc)   XCENC  =        54.78806337
  PAW double counting   =      1328.04705911    -1330.91536259
  entropy T*S    EENTRO =         0.00000000
  eigenvalues    EBANDS =      -212.01553152
  atomic energy  EATOM  =       596.16534815
  Solvation  Ediel_sol  =         0.00000000
  ---------------------------------------------------
  free energy    TOTEN  =       -35.32179177 eV

  energy without entropy =      -35.32179177  energy(sigma->0) =      -35.32179177


--------------------------------------------------------------------------------------------------------




----------------------------------------- Iteration    1(  10)  ---------------------------------------


    POTLOK:  cpu time   19.4830: real time   19.4680
    SETDIJ:  cpu time    0.0090: real time    0.0084
     EDDAV:  cpu time   74.8486: real time   74.7876
       DOS:  cpu time    0.0000: real time    0.0002
    CHARGE:  cpu time    5.7081: real time    5.7040
    MIXING:  cpu time    0.8129: real time    0.8119
    --------------------------------------------
      LOOP:  cpu time  100.8627: real time  100.7835

 eigenvalue-minimisations  :   120
 total energy-change (2. order) : 0.2108026E-03  (-0.4663771E-03)
 number of electron      15.9999985 magnetization 
 augmentation part        0.4448778 magnetization 

 Broyden mixing:
  rms(total) = 0.13229E-01    rms(broyden)= 0.13223E-01
  rms(prec ) = 0.18562E-01
  weight for this iteration     100.00

 eigenvalues of (default mixing * dielectric matrix)
  average eigenvalue GAMMA=   1.4958
  2.1575  2.1575  0.9065  0.9065  1.3507

 Free energy of the ion-electron system (eV)
  ---------------------------------------------------
  alpha Z        PSCENC =         0.04144063
  Ewald energy   TEWEN  =       708.31708016
  -Hartree energ DENC   =     -1180.57510863
  -exchange      EXHF   =         0.00000000
  -V(xc)+E(xc)   XCENC  =        54.80778589
  PAW double counting   =      1324.71122496    -1327.57606938
  entropy T*S    EENTRO =         0.00000000
  eigenvalues    EBANDS =      -211.21328276
  atomic energy  EATOM  =       596.16534815
  Solvation  Ediel_sol  =         0.00000000
  ---------------------------------------------------
  free energy    TOTEN  =       -35.32158097 eV

  energy without entropy =      -35.32158097  energy(sigma->0) =      -35.32158097


--------------------------------------------------------------------------------------------------------




----------------------------------------- Iteration    1(  11)  ---------------------------------------


    POTLOK:  cpu time   19.7530: real time   19.7374
    SETDIJ:  cpu time    0.0080: real time    0.0081
     EDDAV:  cpu time   64.7152: real time   64.6624
       DOS:  cpu time    0.0000: real time    0.0002
    CHARGE:  cpu time    5.6151: real time    5.6100
    MIXING:  cpu time    0.8499: real time    0.8494
    --------------------------------------------
      LOOP:  cpu time   90.9432: real time   90.8710

 eigenvalue-minimisations  :   100
 total energy-change (2. order) :-0.1811562E-02  (-0.1330106E-03)
 number of electron      15.9999985 magnetization 
 augmentation part        0.4444835 magnetization 

 Broyden mixing:
  rms(total) = 0.78706E-02    rms(broyden)= 0.78695E-02
  rms(prec ) = 0.12585E-01
  weight for this iteration     100.00

 eigenvalues of (default mixing * dielectric matrix)
  average eigenvalue GAMMA=   1.6298
  2.6089  2.6089  0.9080  0.9080  1.3725  1.3725

 Free energy of the ion-electron system (eV)
  ---------------------------------------------------
  alpha Z        PSCENC =         0.04144063
  Ewald energy   TEWEN  =       708.31708016
  -Hartree energ DENC   =     -1181.58951529
  -exchange      EXHF   =         0.00000000
  -V(xc)+E(xc)   XCENC  =        54.83628891
  PAW double counting   =      1322.82602677    -1325.68875233
  entropy T*S    EENTRO =         0.00000000
  eigenvalues    EBANDS =      -210.23130952
  atomic energy  EATOM  =       596.16534815
  Solvation  Ediel_sol  =         0.00000000
  ---------------------------------------------------
  free energy    TOTEN  =       -35.32339253 eV

  energy without entropy =      -35.32339253  energy(sigma->0) =      -35.32339253


--------------------------------------------------------------------------------------------------------




----------------------------------------- Iteration    1(  12)  ---------------------------------------


    POTLOK:  cpu time   19.1531: real time   19.1379
    SETDIJ:  cpu time    0.0080: real time    0.0082
     EDDAV:  cpu time   63.1484: real time   63.0968
       DOS:  cpu time    0.0000: real time    0.0002
    CHARGE:  cpu time    5.6791: real time    5.6753
    MIXING:  cpu time    0.8789: real time    0.8776
    --------------------------------------------
      LOOP:  cpu time   88.8695: real time   88.7998

 eigenvalue-minimisations  :    96
 total energy-change (2. order) :-0.5026069E-02  (-0.2700913E-03)
 number of electron      15.9999985 magnetization 
 augmentation part        0.4442198 magnetization 

 Broyden mixing:
  rms(total) = 0.44045E-02    rms(broyden)= 0.43992E-02
  rms(prec ) = 0.71802E-02
  weight for this iteration     100.00

 eigenvalues of (default mixing * dielectric matrix)
  average eigenvalue GAMMA=   1.7245
  3.5590  2.3229  1.6386  1.6386  0.8866  1.0131  1.0131

 Free energy of the ion-electron system (eV)
  ---------------------------------------------------
  alpha Z        PSCENC =         0.04144063
  Ewald energy   TEWEN  =       708.31708016
  -Hartree energ DENC   =     -1182.83974628
  -exchange      EXHF   =         0.00000000
  -V(xc)+E(xc)   XCENC  =        54.86672333
  PAW double counting   =      1319.93313039    -1322.79345099
  entropy T*S    EENTRO =         0.00000000
  eigenvalues    EBANDS =      -209.01894399
  atomic energy  EATOM  =       596.16534815
  Solvation  Ediel_sol  =         0.00000000
  ---------------------------------------------------
  free energy    TOTEN  =       -35.32841860 eV

  energy without entropy =      -35.32841860  energy(sigma->0) =      -35.32841860


--------------------------------------------------------------------------------------------------------




----------------------------------------- Iteration    1(  13)  ---------------------------------------


    POTLOK:  cpu time   19.1981: real time   19.1826
    SETDIJ:  cpu time    0.0080: real time    0.0080
     EDDAV:  cpu time   87.2617: real time   87.1906
       DOS:  cpu time    0.0000: real time    0.0002
    CHARGE:  cpu time    5.6021: real time    5.5984
    MIXING:  cpu time    0.9329: real time    0.9316
    --------------------------------------------
      LOOP:  cpu time  113.0048: real time  112.9148

 eigenvalue-minimisations  :   144
 total energy-change (2. order) :-0.5506789E-02  (-0.1500355E-03)
 number of electron      15.9999985 magnetization 
 augmentation part        0.4439821 magnetization 

 Broyden mixing:
  rms(total) = 0.27323E-02    rms(broyden)= 0.27298E-02
  rms(prec ) = 0.42596E-02
  weight for this iteration     100.00

 eigenvalues of (default mixing * dielectric matrix)
  average eigenvalue GAMMA=   1.8763
  4.8747  2.4866  1.8932  1.6904  0.8839  0.8839  1.1489  1.1489

 Free energy of the ion-electron system (eV)
  ---------------------------------------------------
  alpha Z        PSCENC =         0.04144063
  Ewald energy   TEWEN  =       708.31708016
  -Hartree energ DENC   =     -1183.49801369
  -exchange      EXHF   =         0.00000000
  -V(xc)+E(xc)   XCENC  =        54.87612942
  PAW double counting   =      1319.50069951    -1322.36113729
  entropy T*S    EENTRO =         0.00000000
  eigenvalues    EBANDS =      -208.37547228
  atomic energy  EATOM  =       596.16534815
  Solvation  Ediel_sol  =         0.00000000
  ---------------------------------------------------
  free energy    TOTEN  =       -35.33392539 eV

  energy without entropy =      -35.33392539  energy(sigma->0) =      -35.33392539


--------------------------------------------------------------------------------------------------------




----------------------------------------- Iteration    1(  14)  ---------------------------------------


    POTLOK:  cpu time   19.5100: real time   19.4942
    SETDIJ:  cpu time    0.0080: real time    0.0083
     EDDAV:  cpu time   79.3519: real time   79.2870
       DOS:  cpu time    0.0000: real time    0.0002
    CHARGE:  cpu time    5.7741: real time    5.7701
    MIXING:  cpu time    0.9948: real time    0.9939
    --------------------------------------------
      LOOP:  cpu time  105.6409: real time  105.5572

 eigenvalue-minimisations  :   128
 total energy-change (2. order) :-0.3742915E-02  (-0.4872484E-04)
 number of electron      15.9999985 magnetization 
 augmentation part        0.4440112 magnetization 

 Broyden mixing:
  rms(total) = 0.18168E-02    rms(broyden)= 0.18164E-02
  rms(prec ) = 0.26365E-02
  weight for this iteration     100.00

 eigenvalues of (default mixing * dielectric matrix)
  average eigenvalue GAMMA=   1.8483
  4.9622  2.3789  2.3789  1.4991  1.4991  1.0413  1.0413  0.8817  0.9520

 Free energy of the ion-electron system (eV)
  ---------------------------------------------------
  alpha Z        PSCENC =         0.04144063
  Ewald energy   TEWEN  =       708.31708016
  -Hartree energ DENC   =     -1183.73296181
  -exchange      EXHF   =         0.00000000
  -V(xc)+E(xc)   XCENC  =        54.87161399
  PAW double counting   =      1317.61736198    -1320.47748133
  entropy T*S    EENTRO =         0.00000000
  eigenvalues    EBANDS =      -208.14007007
  atomic energy  EATOM  =       596.16534815
  Solvation  Ediel_sol  =         0.00000000
  ---------------------------------------------------
  free energy    TOTEN  =       -35.33766830 eV

  energy without entropy =      -35.33766830  energy(sigma->0) =      -35.33766830


--------------------------------------------------------------------------------------------------------




----------------------------------------- Iteration    1(  15)  ---------------------------------------


    POTLOK:  cpu time   19.1861: real time   19.1702
    SETDIJ:  cpu time    0.0080: real time    0.0082
     EDDAV:  cpu time   75.6905: real time   75.6285
       DOS:  cpu time    0.0000: real time    0.0002
    CHARGE:  cpu time    5.6501: real time    5.6455
    MIXING:  cpu time    1.1408: real time    1.1407
    --------------------------------------------
      LOOP:  cpu time  101.6765: real time  101.5965

 eigenvalue-minimisations  :   120
 total energy-change (2. order) :-0.2102501E-02  (-0.1575841E-04)
 number of electron      15.9999985 magnetization 
 augmentation part        0.4440287 magnetization 

 Broyden mixing:
  rms(total) = 0.10888E-02    rms(broyden)= 0.10886E-02
  rms(prec ) = 0.17441E-02
  weight for this iteration     100.00

 eigenvalues of (default mixing * dielectric matrix)
  average eigenvalue GAMMA=   2.0910
  6.5227  3.4629  2.4148  1.9691  1.4646  1.2994  1.1116  0.9089  0.9089  0.8476

 Free energy of the ion-electron system (eV)
  ---------------------------------------------------
  alpha Z        PSCENC =         0.04144063
  Ewald energy   TEWEN  =       708.31708016
  -Hartree energ DENC   =     -1183.77846934
  -exchange      EXHF   =         0.00000000
  -V(xc)+E(xc)   XCENC  =        54.86940943
  PAW double counting   =      1318.25240733    -1321.11295199
  entropy T*S    EENTRO =         0.00000000
  eigenvalues    EBANDS =      -208.09403518
  atomic energy  EATOM  =       596.16534815
  Solvation  Ediel_sol  =         0.00000000
  ---------------------------------------------------
  free energy    TOTEN  =       -35.33977080 eV

  energy without entropy =      -35.33977080  energy(sigma->0) =      -35.33977080


--------------------------------------------------------------------------------------------------------




----------------------------------------- Iteration    1(  16)  ---------------------------------------


    POTLOK:  cpu time   19.4850: real time   19.4700
    SETDIJ:  cpu time    0.0080: real time    0.0081
     EDDAV:  cpu time   80.0678: real time   80.0016
       DOS:  cpu time    0.0000: real time    0.0002
    CHARGE:  cpu time    5.7971: real time    5.7929
    MIXING:  cpu time    1.1128: real time    1.1124
    --------------------------------------------
      LOOP:  cpu time  106.4738: real time  106.3884

 eigenvalue-minimisations  :   128
 total energy-change (2. order) :-0.2423711E-02  (-0.2981612E-04)
 number of electron      15.9999985 magnetization 
 augmentation part        0.4440278 magnetization 

 Broyden mixing:
  rms(total) = 0.61292E-03    rms(broyden)= 0.61278E-03
  rms(prec ) = 0.83799E-03
  weight for this iteration     100.00

 eigenvalues of (default mixing * dielectric matrix)
  average eigenvalue GAMMA=   2.0811
  7.1093  3.4442  2.2365  2.2365  1.4720  1.3528  1.3528  0.9740  0.9740  0.9126
  0.8280

 Free energy of the ion-electron system (eV)
  ---------------------------------------------------
  alpha Z        PSCENC =         0.04144063
  Ewald energy   TEWEN  =       708.31708016
  -Hartree energ DENC   =     -1183.82566484
  -exchange      EXHF   =         0.00000000
  -V(xc)+E(xc)   XCENC  =        54.86458074
  PAW double counting   =      1318.34499065    -1321.20552005
  entropy T*S    EENTRO =         0.00000000
  eigenvalues    EBANDS =      -208.04444996
  atomic energy  EATOM  =       596.16534815
  Solvation  Ediel_sol  =         0.00000000
  ---------------------------------------------------
  free energy    TOTEN  =       -35.34219451 eV

  energy without entropy =      -35.34219451  energy(sigma->0) =      -35.34219451


--------------------------------------------------------------------------------------------------------




----------------------------------------- Iteration    1(  17)  ---------------------------------------


    POTLOK:  cpu time   19.1271: real time   19.1112
    SETDIJ:  cpu time    0.0080: real time    0.0082
     EDDAV:  cpu time   64.3372: real time   64.2845
       DOS:  cpu time    0.0000: real time    0.0002
    CHARGE:  cpu time    5.7801: real time    5.7752
    MIXING:  cpu time    1.2628: real time    1.2621
    --------------------------------------------
      LOOP:  cpu time   90.5162: real time   90.4454

 eigenvalue-minimisations  :    96
 total energy-change (2. order) :-0.5386600E-03  (-0.1908410E-05)
 number of electron      15.9999985 magnetization 
 augmentation part        0.4440146 magnetization 

 Broyden mixing:
  rms(total) = 0.35280E-03    rms(broyden)= 0.35269E-03
  rms(prec ) = 0.52472E-03
  weight for this iteration     100.00

 eigenvalues of (default mixing * dielectric matrix)
  average eigenvalue GAMMA=   2.2564
  8.0858  4.3283  2.7222  2.4632  1.8230  1.5469  1.4072  1.0861  0.9410  0.9410
  0.9122  0.8203

 Free energy of the ion-electron system (eV)
  ---------------------------------------------------
  alpha Z        PSCENC =         0.04144063
  Ewald energy   TEWEN  =       708.31708016
  -Hartree energ DENC   =     -1183.83204268
  -exchange      EXHF   =         0.00000000
  -V(xc)+E(xc)   XCENC  =        54.86376327
  PAW double counting   =      1318.13908304    -1320.99950303
  entropy T*S    EENTRO =         0.00000000
  eigenvalues    EBANDS =      -208.03790272
  atomic energy  EATOM  =       596.16534815
  Solvation  Ediel_sol  =         0.00000000
  ---------------------------------------------------
  free energy    TOTEN  =       -35.34273317 eV

  energy without entropy =      -35.34273317  energy(sigma->0) =      -35.34273317


--------------------------------------------------------------------------------------------------------




----------------------------------------- Iteration    1(  18)  ---------------------------------------


    POTLOK:  cpu time   20.1089: real time   20.0924
    SETDIJ:  cpu time    0.0080: real time    0.0082
     EDDAV:  cpu time   62.1835: real time   62.1329
       DOS:  cpu time    0.0000: real time    0.0002
    CHARGE:  cpu time    5.8561: real time    5.8521
    MIXING:  cpu time    1.3338: real time    1.3317
    --------------------------------------------
      LOOP:  cpu time   89.4924: real time   89.4206

 eigenvalue-minimisations  :    92
 total energy-change (2. order) :-0.5482941E-03  (-0.3940290E-05)
 number of electron      15.9999985 magnetization 
 augmentation part        0.4440104 magnetization 

 Broyden mixing:
  rms(total) = 0.20615E-03    rms(broyden)= 0.20610E-03
  rms(prec ) = 0.26974E-03
  weight for this iteration     100.00

 eigenvalues of (default mixing * dielectric matrix)
  average eigenvalue GAMMA=   2.2633
  8.1555  4.9341  2.6835  2.2114  2.2114  1.6326  1.6326  1.2817  1.0152  1.0152
  0.9092  0.9092  0.8311

 Free energy of the ion-electron system (eV)
  ---------------------------------------------------
  alpha Z        PSCENC =         0.04144063
  Ewald energy   TEWEN  =       708.31708016
  -Hartree energ DENC   =     -1183.82438033
  -exchange      EXHF   =         0.00000000
  -V(xc)+E(xc)   XCENC  =        54.86260035
  PAW double counting   =      1318.30457593    -1321.16492292
  entropy T*S    EENTRO =         0.00000000
  eigenvalues    EBANDS =      -208.04502344
  atomic energy  EATOM  =       596.16534815
  Solvation  Ediel_sol  =         0.00000000
  ---------------------------------------------------
  free energy    TOTEN  =       -35.34328147 eV

  energy without entropy =      -35.34328147  energy(sigma->0) =      -35.34328147


--------------------------------------------------------------------------------------------------------




----------------------------------------- Iteration    1(  19)  ---------------------------------------


    POTLOK:  cpu time   19.6640: real time   19.6477
    SETDIJ:  cpu time    0.0080: real time    0.0082
     EDDAV:  cpu time   64.3702: real time   64.3187
       DOS:  cpu time    0.0000: real time    0.0002
    CHARGE:  cpu time    5.7791: real time    5.7741
    MIXING:  cpu time    1.4588: real time    1.4580
    --------------------------------------------
      LOOP:  cpu time   91.2821: real time   91.2152

 eigenvalue-minimisations  :    96
 total energy-change (2. order) :-0.1453113E-03  (-0.1025902E-05)
 number of electron      15.9999985 magnetization 
 augmentation part        0.4440090 magnetization 

 Broyden mixing:
  rms(total) = 0.11762E-03    rms(broyden)= 0.11760E-03
  rms(prec ) = 0.15881E-03
  weight for this iteration     100.00

 eigenvalues of (default mixing * dielectric matrix)
  average eigenvalue GAMMA=   2.3396
  8.7760  5.2996  3.2799  2.6581  2.1940  2.0283  1.4546  1.4546  1.0166  1.0166
  0.9137  0.9137  0.9188  0.8305

 Free energy of the ion-electron system (eV)
  ---------------------------------------------------
  alpha Z        PSCENC =         0.04144063
  Ewald energy   TEWEN  =       708.31708016
  -Hartree energ DENC   =     -1183.82054945
  -exchange      EXHF   =         0.00000000
  -V(xc)+E(xc)   XCENC  =        54.86238104
  PAW double counting   =      1318.36474132    -1321.22517347
  entropy T*S    EENTRO =         0.00000000
  eigenvalues    EBANDS =      -208.04869516
  atomic energy  EATOM  =       596.16534815
  Solvation  Ediel_sol  =         0.00000000
  ---------------------------------------------------
  free energy    TOTEN  =       -35.34342678 eV

  energy without entropy =      -35.34342678  energy(sigma->0) =      -35.34342678


--------------------------------------------------------------------------------------------------------




----------------------------------------- Iteration    1(  20)  ---------------------------------------


    POTLOK:  cpu time   20.0360: real time   20.0202
    SETDIJ:  cpu time    0.0090: real time    0.0082
     EDDAV:  cpu time   56.3404: real time   56.2944
       DOS:  cpu time    0.0000: real time    0.0002
    --------------------------------------------
      LOOP:  cpu time   76.3864: real time   76.3265

 eigenvalue-minimisations  :    80
 total energy-change (2. order) :-0.9464278E-04  (-0.4219516E-06)
 number of electron      15.9999985 magnetization 
 augmentation part        0.4440090 magnetization 

 Free energy of the ion-electron system (eV)
  ---------------------------------------------------
  alpha Z        PSCENC =         0.04144063
  Ewald energy   TEWEN  =       708.31708016
  -Hartree energ DENC   =     -1183.82074966
  -exchange      EXHF   =         0.00000000
  -V(xc)+E(xc)   XCENC  =        54.86213679
  PAW double counting   =      1318.23371983    -1321.09413511
  entropy T*S    EENTRO =         0.00000000
  eigenvalues    EBANDS =      -208.04836221
  atomic energy  EATOM  =       596.16534815
  Solvation  Ediel_sol  =         0.00000000
  ---------------------------------------------------
  free energy    TOTEN  =       -35.34352142 eV

  energy without entropy =      -35.34352142  energy(sigma->0) =      -35.34352142


--------------------------------------------------------------------------------------------------------




 average (electrostatic) potential at core
  the test charge radii are     0.5201  0.6991  0.7089
  (the norm of the test charge is              1.0000)
       1 -42.9647       2 -42.9659       3 -42.9339       4 -60.3934       5 -59.5465
       6 -74.7329
 
 
 
 E-fermi :  -6.2265     XC(G=0):  -0.0925     alpha+bet : -0.0137


 k-point     1 :       0.2500    0.2500    0.2500
  band No.  band energies     occupation 
      1     -24.0503      2.00000
      2     -18.9059      2.00000
      3     -13.5746      2.00000
      4     -11.7442      2.00000
      5     -11.7332      2.00000
      6      -8.5984      2.00000
      7      -8.2407      2.00000
      8      -7.1768      2.00000
      9      -1.7936      0.00000
     10      -0.8413      0.00000
     11      -0.4574      0.00000
     12      -0.0092      0.00000

 k-point     2 :      -0.2500    0.2500    0.2500
  band No.  band energies     occupation 
      1     -24.0503      2.00000
      2     -18.9059      2.00000
      3     -13.5746      2.00000
      4     -11.7442      2.00000
      5     -11.7332      2.00000
      6      -8.5984      2.00000
      7      -8.2407      2.00000
      8      -7.1768      2.00000
      9      -1.7936      0.00000
     10      -0.8414      0.00000
     11      -0.4575      0.00000
     12      -0.0054      0.00000

 k-point     3 :       0.2500   -0.2500    0.2500
  band No.  band energies     occupation 
      1     -24.0503      2.00000
      2     -18.9059      2.00000
      3     -13.5746      2.00000
      4     -11.7442      2.00000
      5     -11.7332      2.00000
      6      -8.5984      2.00000
      7      -8.2407      2.00000
      8      -7.1768      2.00000
      9      -1.7936      0.00000
     10      -0.8413      0.00000
     11      -0.4575      0.00000
     12      -0.0067      0.00000

 k-point     4 :      -0.2500   -0.2500    0.2500
  band No.  band energies     occupation 
      1     -24.0503      2.00000
      2     -18.9059      2.00000
      3     -13.5746      2.00000
      4     -11.7442      2.00000
      5     -11.7332      2.00000
      6      -8.5984      2.00000
      7      -8.2407      2.00000
      8      -7.1768      2.00000
      9      -1.7936      0.00000
     10      -0.8413      0.00000
     11      -0.4575      0.00000
     12       0.0018      0.00000


--------------------------------------------------------------------------------------------------------


 soft charge-density along one line, spin component           1
         0         1         2         3         4         5         6         7         8         9
 total charge-density along one line
 
 pseudopotential strength for first ion, spin component:           1
 -2.361  -4.072  -0.002   0.000   0.000
 -4.072  -6.937  -0.006  -0.001  -0.001
 -0.002  -0.006  -0.330   0.001   0.001
  0.000  -0.001   0.001  -0.334   0.000
  0.000  -0.001   0.001   0.000  -0.334
 total augmentation occupancy for first ion, spin component:           1
  3.527  -0.635   0.434   0.050   0.091
 -0.635   0.132  -0.080  -0.009  -0.017
  0.434  -0.080   0.054   0.005   0.010
  0.050  -0.009   0.005   0.009   0.001
  0.091  -0.017   0.010   0.001   0.008


------------------------ aborting loop because EDIFF is reached ----------------------------------------


    CHARGE:  cpu time    5.7511: real time    5.7458
    FORLOC:  cpu time    2.8106: real time    2.8081
    FORNL :  cpu time   18.9331: real time   18.9173
    STRESS:  cpu time   58.8471: real time   58.7995
    FORCOR:  cpu time   22.1606: real time   22.1417
    FORHAR:  cpu time    7.5119: real time    7.5062
    MIXING:  cpu time    1.5498: real time    1.5478
    OFIELD:  cpu time    0.0000: real time    0.0001

  FORCE on cell =-STRESS in cart. coord.  units (eV):
  Direction    XX          YY          ZZ          XY          YZ          ZX
  --------------------------------------------------------------------------------------
  Alpha Z     0.04144     0.04144     0.04144
  Ewald     485.59095    49.68379   173.04222    -7.22762    23.18468  -194.14334
  Hartree   541.08276   295.94266   346.79521     2.17251     7.07753   -93.73107
  E(xc)     -59.24590   -60.17010   -59.77119    -0.06798     0.08976    -0.53936
  Local   -1178.51995  -519.62860  -682.49100     3.60932   -27.11302   275.19381
  n-local   -24.24039   -24.09963   -26.29676     1.01307    -0.54711     2.45887
  augment     0.60205     0.95751     0.86990     0.00540    -0.01167     0.14822
  Kinetic   235.44534   256.21457   246.77166     0.52231    -2.80106     9.96230
  Fock        0.00000     0.00000     0.00000     0.00000     0.00000     0.00000
  -------------------------------------------------------------------------------------
  Total       0.75629    -1.05836    -1.03851     0.02701    -0.12089    -0.65056
  in kB       0.04488    -0.06280    -0.06163     0.00160    -0.00717    -0.03860
  external pressure =       -0.03 kB  Pullay stress =        0.00 kB


 VOLUME and BASIS-vectors are now :
 -----------------------------------------------------------------------------
  energy-cutoff  :      400.00
  volume of cell :    27000.00
      direct lattice vectors                 reciprocal lattice vectors
    30.000000000  0.000000000  0.000000000     0.033333333  0.000000000  0.000000000
     0.000000000 30.000000000  0.000000000     0.000000000  0.033333333  0.000000000
     0.000000000  0.000000000 30.000000000     0.000000000  0.000000000  0.033333333

  length of vectors
    30.000000000 30.000000000 30.000000000     0.033333333  0.033333333  0.033333333


 FORCES acting on ions
    electron-ion (+dipol)            ewald-force                    non-local-force                 convergence-correction
 -----------------------------------------------------------------------------------------------
   0.273E+02 0.615E+02 0.311E+01   -.287E+02 -.670E+02 -.364E+01   0.114E+01 0.554E+01 0.656E+00   -.763E-05 0.291E-03 0.378E-04
   0.430E+02 -.312E+02 0.415E+02   -.458E+02 0.341E+02 -.455E+02   0.258E+01 -.291E+01 0.416E+01   0.695E-04 -.169E-03 0.228E-03
   0.304E+02 -.186E+02 -.573E+02   -.323E+02 0.205E+02 0.626E+02   0.183E+01 -.184E+01 -.520E+01   0.535E-04 -.110E-03 -.289E-03
   0.120E+03 0.810E+01 -.289E+02   -.127E+03 -.896E+01 0.300E+02   0.742E+01 0.873E+00 -.934E+00   -.718E-03 -.718E-04 0.110E-03
   -.183E+03 0.285E+02 0.140E+03   0.201E+03 -.331E+02 -.158E+03   -.169E+02 0.483E+01 0.180E+02   0.538E-03 -.144E-03 -.550E-03
   -.313E+02 -.487E+02 -.101E+03   0.329E+02 0.545E+02 0.114E+03   -.195E+01 -.616E+01 -.136E+02   -.168E-02 -.741E-04 0.494E-03
 -----------------------------------------------------------------------------------------------
   0.591E+01 -.316E+00 -.309E+01   -.284E-13 0.000E+00 0.000E+00   -.590E+01 0.320E+00 0.309E+01   -.174E-02 -.277E-03 0.301E-04
 
 
 POSITION                                       TOTAL-FORCE (eV/Angst)
 -----------------------------------------------------------------------------------
     14.34138     13.93514     15.06203        -0.199868      0.030546      0.127108
     14.06372     15.56912     14.38538        -0.193328      0.013406      0.135099
     14.22921     15.35283     16.16385        -0.023815      0.050006      0.127488
     14.56260     15.00407     15.18441        -0.109746      0.011689      0.070117
     16.83211     14.97398     14.20647         0.861432      0.226990      0.192230
     15.97127     15.16543     14.99786        -0.334674     -0.332638     -0.652043
 -----------------------------------------------------------------------------------
    total drift:                                0.002158      0.004240     -0.001472


--------------------------------------------------------------------------------------------------------



  FREE ENERGIE OF THE ION-ELECTRON SYSTEM (eV)
  ---------------------------------------------------
  free  energy   TOTEN  =       -35.34352142 eV

  energy  without entropy=      -35.34352142  energy(sigma->0) =      -35.34352142
 


--------------------------------------------------------------------------------------------------------


    POTLOK:  cpu time   18.7402: real time   18.7262


--------------------------------------------------------------------------------------------------------


 NEB: the previous image is higher in energy: F
 NEB: the next image is higher in energy    : T
 NEB: only next energy greater

 NEB: Tangent
 ----------------------------------------------
      0.14086     -0.02755     -0.10456
      0.13878     -0.01870     -0.11057
      0.04629     -0.03416     -0.09900
      0.07750     -0.01626     -0.06750
     -0.69543     -0.15905     -0.10944
      0.29200      0.25572      0.49106

 NEB: forces: par spring, perp REAL, dneb     0.400445    0.093516    0.000000
 NEB: distance to prev, next image, angle between     0.522815    0.442726  140.924301
 NEB: projections on to tangent (spring, REAL)    -0.400445   -1.272349

 stress matrix after NEB project (eV)
      0.75629      0.02701     -0.65056
      0.02701     -1.05836     -0.12089
     -0.65056     -0.12089     -1.03851
  FORCES: max atom, RMS     0.286773    0.167880
  FORCE total and by dimension    0.411220    0.255083
  Stress total and by dimension    1.909910    1.058357
 
 OPT: Flag T
 OPT: FIRE Step
 OPT: FIRE, TIMESTEP      0.10000
 OPT: FIRE, alpha         0.10000


--------------------------------------------------------------------------------------------------------


    WAVPRE:  cpu time    9.2976: real time    9.2907
 FEWALD executed in parallel
    FEWALD:  cpu time    0.0010: real time    0.0004
    ORTHCH:  cpu time    6.8880: real time    6.8829
     LOOP+:  cpu time 2410.8585: real time 2408.9470


----------------------------------------- Iteration    2(   1)  ---------------------------------------


    POTLOK:  cpu time   19.8470: real time   19.8298
    SETDIJ:  cpu time    0.0080: real time    0.0083
     EDDAV:  cpu time   70.7182: real time   70.6611
       DOS:  cpu time    0.0000: real time    0.0002
    CHARGE:  cpu time    5.9661: real time    5.9616
    MIXING:  cpu time    0.6039: real time    0.6039
    --------------------------------------------
      LOOP:  cpu time   97.1452: real time   97.0672

 eigenvalue-minimisations  :   104
 total energy-change (2. order) :-0.5279069E-02  (-0.3765181E-02)
 number of electron      15.9999984 magnetization 
 augmentation part        0.4438899 magnetization 

 Broyden mixing:
  rms(total) = 0.48442E-02    rms(broyden)= 0.48069E-02
  rms(prec ) = 0.49322E-02
  weight for this iteration     100.00

 Free energy of the ion-electron system (eV)
  ---------------------------------------------------
  alpha Z        PSCENC =         0.04144063
  Ewald energy   TEWEN  =       708.21274318
  -Hartree energ DENC   =     -1183.72532394
  -exchange      EXHF   =         0.00000000
  -V(xc)+E(xc)   XCENC  =        54.86263817
  PAW double counting   =      1318.25595472    -1321.11635218
  entropy T*S    EENTRO =         0.00000000
  eigenvalues    EBANDS =      -208.04515457
  atomic energy  EATOM  =       596.16534815
  Solvation  Ediel_sol  =         0.00000000
  ---------------------------------------------------
  free energy    TOTEN  =       -35.34870585 eV

  energy without entropy =      -35.34870585  energy(sigma->0) =      -35.34870585


--------------------------------------------------------------------------------------------------------




----------------------------------------- Iteration    2(   2)  ---------------------------------------


    POTLOK:  cpu time   19.6950: real time   19.6789
    SETDIJ:  cpu time    0.0080: real time    0.0081
     EDDAV:  cpu time   80.9957: real time   80.9290
       DOS:  cpu time    0.0000: real time    0.0002
    CHARGE:  cpu time    5.8041: real time    5.7998
    MIXING:  cpu time    0.6669: real time    0.6661
    --------------------------------------------
      LOOP:  cpu time  107.1707: real time  107.2011

 eigenvalue-minimisations  :   128
 total energy-change (2. order) : 0.2731566E-05  (-0.3175613E-04)
 number of electron      15.9999984 magnetization 
 augmentation part        0.4440849 magnetization 

 Broyden mixing:
  rms(total) = 0.26965E-02    rms(broyden)= 0.26933E-02
  rms(prec ) = 0.27384E-02
  weight for this iteration     100.00

 eigenvalues of (default mixing * dielectric matrix)
  average eigenvalue GAMMA=   1.6875
  1.6875

 Free energy of the ion-electron system (eV)
  ---------------------------------------------------
  alpha Z        PSCENC =         0.04144063
  Ewald energy   TEWEN  =       708.21274318
  -Hartree energ DENC   =     -1183.71106736
  -exchange      EXHF   =         0.00000000
  -V(xc)+E(xc)   XCENC  =        54.86182516
  PAW double counting   =      1318.40401859    -1321.26424482
  entropy T*S    EENTRO =         0.00000000
  eigenvalues    EBANDS =      -208.05876665
  atomic energy  EATOM  =       596.16534815
  Solvation  Ediel_sol  =         0.00000000
  ---------------------------------------------------
  free energy    TOTEN  =       -35.34870312 eV

  energy without entropy =      -35.34870312  energy(sigma->0) =      -35.34870312


--------------------------------------------------------------------------------------------------------




----------------------------------------- Iteration    2(   3)  ---------------------------------------


    POTLOK:  cpu time   19.3271: real time   19.3115
    SETDIJ:  cpu time    0.0080: real time    0.0082
     EDDAV:  cpu time   56.0095: real time   55.9632
       DOS:  cpu time    0.0000: real time    0.0002
    CHARGE:  cpu time    5.9431: real time    5.9386
    MIXING:  cpu time    0.7129: real time    0.7121
    --------------------------------------------
      LOOP:  cpu time   82.0025: real time   81.9375

 eigenvalue-minimisations  :    80
 total energy-change (2. order) :-0.1603023E-04  (-0.1349669E-05)
 number of electron      15.9999984 magnetization 
 augmentation part        0.4441134 magnetization 

 Broyden mixing:
  rms(total) = 0.78834E-03    rms(broyden)= 0.78793E-03
  rms(prec ) = 0.80165E-03
  weight for this iteration     100.00

 eigenvalues of (default mixing * dielectric matrix)
  average eigenvalue GAMMA=   1.6032
  1.1211  2.0854

 Free energy of the ion-electron system (eV)
  ---------------------------------------------------
  alpha Z        PSCENC =         0.04144063
  Ewald energy   TEWEN  =       708.21274318
  -Hartree energ DENC   =     -1183.71229475
  -exchange      EXHF   =         0.00000000
  -V(xc)+E(xc)   XCENC  =        54.86167994
  PAW double counting   =      1318.40081675    -1321.26123060
  entropy T*S    EENTRO =         0.00000000
  eigenvalues    EBANDS =      -208.05722244
  atomic energy  EATOM  =       596.16534815
  Solvation  Ediel_sol  =         0.00000000
  ---------------------------------------------------
  free energy    TOTEN  =       -35.34871915 eV

  energy without entropy =      -35.34871915  energy(sigma->0) =      -35.34871915


--------------------------------------------------------------------------------------------------------




----------------------------------------- Iteration    2(   4)  ---------------------------------------


    POTLOK:  cpu time   19.3001: real time   19.2847
    SETDIJ:  cpu time    0.0090: real time    0.0084
     EDDAV:  cpu time   62.2305: real time   62.1801
[...]
  Solvation  Ediel_sol  =         0.00000000
  ---------------------------------------------------
  free energy    TOTEN  =       -35.48472768 eV

  energy without entropy =      -35.48472768  energy(sigma->0) =      -35.48472768


--------------------------------------------------------------------------------------------------------




----------------------------------------- Iteration  135(   2)  ---------------------------------------


    POTLOK:  cpu time   21.3178: real time   21.3004
    SETDIJ:  cpu time    0.0090: real time    0.0088
     EDDAV:  cpu time   54.4787: real time   54.4345
       DOS:  cpu time    0.0000: real time    0.0002
    CHARGE:  cpu time    5.9581: real time    5.9540
    MIXING:  cpu time    0.6579: real time    0.6571
    --------------------------------------------
      LOOP:  cpu time   82.4235: real time   82.3582

 eigenvalue-minimisations  :    64
 total energy-change (2. order) : 0.2080304E-05  (-0.5384601E-05)
 number of electron      15.9999981 magnetization 
 augmentation part        0.4475053 magnetization 

 Broyden mixing:
  rms(total) = 0.10490E-02    rms(broyden)= 0.10477E-02
  rms(prec ) = 0.10664E-02
  weight for this iteration     100.00

 eigenvalues of (default mixing * dielectric matrix)
  average eigenvalue GAMMA=   1.8478
  1.8478

 Free energy of the ion-electron system (eV)
  ---------------------------------------------------
  alpha Z        PSCENC =         0.04144063
  Ewald energy   TEWEN  =       706.68946023
  -Hartree energ DENC   =     -1181.90172342
  -exchange      EXHF   =         0.00000000
  -V(xc)+E(xc)   XCENC  =        54.88007788
  PAW double counting   =      1326.76051974    -1329.62651029
  entropy T*S    EENTRO =         0.00000000
  eigenvalues    EBANDS =      -208.49333852
  atomic energy  EATOM  =       596.16534815
  Solvation  Ediel_sol  =         0.00000000
  ---------------------------------------------------
  free energy    TOTEN  =       -35.48472560 eV

  energy without entropy =      -35.48472560  energy(sigma->0) =      -35.48472560


--------------------------------------------------------------------------------------------------------




----------------------------------------- Iteration  135(   3)  ---------------------------------------


    POTLOK:  cpu time   21.9317: real time   21.9139
    SETDIJ:  cpu time    0.0090: real time    0.0083
     EDDAV:  cpu time   53.5239: real time   53.4811
       DOS:  cpu time    0.0000: real time    0.0002
    CHARGE:  cpu time    5.8831: real time    5.8785
    MIXING:  cpu time    0.7149: real time    0.7154
    --------------------------------------------
      LOOP:  cpu time   82.0645: real time   82.0008

 eigenvalue-minimisations  :    64
 total energy-change (2. order) :-0.2372337E-05  (-0.8411276E-06)
 number of electron      15.9999981 magnetization 
 augmentation part        0.4475256 magnetization 

 Broyden mixing:
  rms(total) = 0.26456E-03    rms(broyden)= 0.26431E-03
  rms(prec ) = 0.26932E-03
  weight for this iteration     100.00

 eigenvalues of (default mixing * dielectric matrix)
  average eigenvalue GAMMA=   1.6245
  1.1902  2.0587

 Free energy of the ion-electron system (eV)
  ---------------------------------------------------
  alpha Z        PSCENC =         0.04144063
  Ewald energy   TEWEN  =       706.68946023
  -Hartree energ DENC   =     -1181.90119430
  -exchange      EXHF   =         0.00000000
  -V(xc)+E(xc)   XCENC  =        54.87997172
  PAW double counting   =      1326.77990499    -1329.64593716
  entropy T*S    EENTRO =         0.00000000
  eigenvalues    EBANDS =      -208.49372223
  atomic energy  EATOM  =       596.16534815
  Solvation  Ediel_sol  =         0.00000000
  ---------------------------------------------------
  free energy    TOTEN  =       -35.48472797 eV

  energy without entropy =      -35.48472797  energy(sigma->0) =      -35.48472797


--------------------------------------------------------------------------------------------------------




----------------------------------------- Iteration  135(   4)  ---------------------------------------


    POTLOK:  cpu time   21.4887: real time   21.4707
    SETDIJ:  cpu time    0.0080: real time    0.0083
     EDDAV:  cpu time   45.2751: real time   45.2389
       DOS:  cpu time    0.0000: real time    0.0002
    CHARGE:  cpu time    5.9001: real time    5.8956
    MIXING:  cpu time    0.7589: real time    0.7594
    --------------------------------------------
      LOOP:  cpu time   73.4338: real time   73.3772

 eigenvalue-minimisations  :    48
 total energy-change (2. order) :-0.4556035E-06  (-0.2003501E-06)
 number of electron      15.9999981 magnetization 
 augmentation part        0.4475193 magnetization 

 Broyden mixing:
  rms(total) = 0.10999E-03    rms(broyden)= 0.10988E-03
  rms(prec ) = 0.11368E-03
  weight for this iteration     100.00

 eigenvalues of (default mixing * dielectric matrix)
  average eigenvalue GAMMA=   1.5339
  2.3299  1.0867  1.1852

 Free energy of the ion-electron system (eV)
  ---------------------------------------------------
  alpha Z        PSCENC =         0.04144063
  Ewald energy   TEWEN  =       706.68946023
  -Hartree energ DENC   =     -1181.90215570
  -exchange      EXHF   =         0.00000000
  -V(xc)+E(xc)   XCENC  =        54.87999749
  PAW double counting   =      1326.78379824    -1329.64986084
  entropy T*S    EENTRO =         0.00000000
  eigenvalues    EBANDS =      -208.49275662
  atomic energy  EATOM  =       596.16534815
  Solvation  Ediel_sol  =         0.00000000
  ---------------------------------------------------
  free energy    TOTEN  =       -35.48472843 eV

  energy without entropy =      -35.48472843  energy(sigma->0) =      -35.48472843


--------------------------------------------------------------------------------------------------------




----------------------------------------- Iteration  135(   5)  ---------------------------------------


    POTLOK:  cpu time   21.0558: real time   21.0391
    SETDIJ:  cpu time    0.0080: real time    0.0082
     EDDAV:  cpu time   43.8373: real time   43.8011
       DOS:  cpu time    0.0000: real time    0.0002
    CHARGE:  cpu time    6.3290: real time    6.3236
    MIXING:  cpu time    0.8689: real time    0.8683
    --------------------------------------------
      LOOP:  cpu time   72.1010: real time   72.0445

 eigenvalue-minimisations  :    48
 total energy-change (2. order) :-0.1481149E-06  (-0.6359132E-07)
 number of electron      15.9999981 magnetization 
 augmentation part        0.4475203 magnetization 

 Broyden mixing:
  rms(total) = 0.56241E-04    rms(broyden)= 0.56201E-04
  rms(prec ) = 0.58995E-04
  weight for this iteration     100.00

 eigenvalues of (default mixing * dielectric matrix)
  average eigenvalue GAMMA=   1.6210
  2.5526  1.8607  0.9148  1.1560

 Free energy of the ion-electron system (eV)
  ---------------------------------------------------
  alpha Z        PSCENC =         0.04144063
  Ewald energy   TEWEN  =       706.68946023
  -Hartree energ DENC   =     -1181.90146556
  -exchange      EXHF   =         0.00000000
  -V(xc)+E(xc)   XCENC  =        54.87997777
  PAW double counting   =      1326.77681440    -1329.64288386
  entropy T*S    EENTRO =         0.00000000
  eigenvalues    EBANDS =      -208.49342034
  atomic energy  EATOM  =       596.16534815
  Solvation  Ediel_sol  =         0.00000000
  ---------------------------------------------------
  free energy    TOTEN  =       -35.48472857 eV

  energy without entropy =      -35.48472857  energy(sigma->0) =      -35.48472857


--------------------------------------------------------------------------------------------------------




----------------------------------------- Iteration  135(   6)  ---------------------------------------


    POTLOK:  cpu time   21.0838: real time   21.0675
    SETDIJ:  cpu time    0.0090: real time    0.0083
     EDDAV:  cpu time   43.0815: real time   43.0465
       DOS:  cpu time    0.0000: real time    0.0002
    --------------------------------------------
      LOOP:  cpu time   64.1762: real time   64.1262

 eigenvalue-minimisations  :    48
 total energy-change (2. order) :-0.1643356E-06  (-0.2353818E-07)
 number of electron      15.9999981 magnetization 
 augmentation part        0.4475203 magnetization 

 Free energy of the ion-electron system (eV)
  ---------------------------------------------------
  alpha Z        PSCENC =         0.04144063
  Ewald energy   TEWEN  =       706.68946023
  -Hartree energ DENC   =     -1181.90107968
  -exchange      EXHF   =         0.00000000
  -V(xc)+E(xc)   XCENC  =        54.87997577
  PAW double counting   =      1326.76399025    -1329.63006414
  entropy T*S    EENTRO =         0.00000000
  eigenvalues    EBANDS =      -208.49379995
  atomic energy  EATOM  =       596.16534815
  Solvation  Ediel_sol  =         0.00000000
  ---------------------------------------------------
  free energy    TOTEN  =       -35.48472874 eV

  energy without entropy =      -35.48472874  energy(sigma->0) =      -35.48472874


--------------------------------------------------------------------------------------------------------




 average (electrostatic) potential at core
  the test charge radii are     0.5201  0.6991  0.7089
  (the norm of the test charge is              1.0000)
       1 -43.0232       2 -43.0225       3 -42.9999       4 -60.4545       5 -59.4427
       6 -74.7798
 
 
 
 E-fermi :  -6.1909     XC(G=0):  -0.0596     alpha+bet : -0.0137


 k-point     1 :       0.2500    0.2500    0.2500
  band No.  band energies     occupation 
      1     -23.9916      2.00000
      2     -19.0987      2.00000
      3     -13.7063      2.00000
      4     -11.7905      2.00000
      5     -11.7739      2.00000
      6      -8.4788      2.00000
      7      -8.2591      2.00000
      8      -7.1479      2.00000
      9      -1.4060      0.00000
     10      -0.7594      0.00000
     11      -0.4923      0.00000
     12       0.0254      0.00000

 k-point     2 :      -0.2500    0.2500    0.2500
  band No.  band energies     occupation 
      1     -23.9916      2.00000
      2     -19.0987      2.00000
      3     -13.7063      2.00000
      4     -11.7905      2.00000
      5     -11.7739      2.00000
      6      -8.4788      2.00000
      7      -8.2591      2.00000
      8      -7.1479      2.00000
      9      -1.4060      0.00000
     10      -0.7594      0.00000
     11      -0.4923      0.00000
     12       0.0278      0.00000

 k-point     3 :       0.2500   -0.2500    0.2500
  band No.  band energies     occupation 
      1     -23.9916      2.00000
      2     -19.0987      2.00000
      3     -13.7063      2.00000
      4     -11.7905      2.00000
      5     -11.7739      2.00000
      6      -8.4788      2.00000
      7      -8.2591      2.00000
      8      -7.1479      2.00000
      9      -1.4060      0.00000
     10      -0.7594      0.00000
     11      -0.4923      0.00000
     12       0.0269      0.00000

 k-point     4 :      -0.2500   -0.2500    0.2500
  band No.  band energies     occupation 
      1     -23.9916      2.00000
      2     -19.0987      2.00000
      3     -13.7063      2.00000
      4     -11.7905      2.00000
      5     -11.7739      2.00000
      6      -8.4788      2.00000
      7      -8.2591      2.00000
      8      -7.1479      2.00000
      9      -1.4060      0.00000
     10      -0.7594      0.00000
     11      -0.4923      0.00000
     12       0.0277      0.00000


--------------------------------------------------------------------------------------------------------


 soft charge-density along one line, spin component           1
         0         1         2         3         4         5         6         7         8         9
 total charge-density along one line
 
 pseudopotential strength for first ion, spin component:           1
 -2.362  -4.073  -0.002   0.000   0.000
 -4.073  -6.940  -0.006  -0.001  -0.001
 -0.002  -0.006  -0.329   0.000   0.001
  0.000  -0.001   0.000  -0.334   0.000
  0.000  -0.001   0.001   0.000  -0.334
 total augmentation occupancy for first ion, spin component:           1
  3.523  -0.634   0.432   0.042   0.101
 -0.634   0.132  -0.080  -0.007  -0.019
  0.432  -0.080   0.054   0.004   0.011
  0.042  -0.007   0.004   0.009   0.001
  0.101  -0.019   0.011   0.001   0.009


------------------------ aborting loop because EDIFF is reached ----------------------------------------


    CHARGE:  cpu time    6.4600: real time    6.4543
    FORLOC:  cpu time    2.8816: real time    2.8796
    FORNL :  cpu time   20.0579: real time   20.0416
    STRESS:  cpu time   59.4860: real time   59.4367
    FORCOR:  cpu time   21.7857: real time   21.7675
    FORHAR:  cpu time    7.4629: real time    7.4574
    MIXING:  cpu time    0.7779: real time    0.7772
    OFIELD:  cpu time    0.0000: real time    0.0000

  FORCE on cell =-STRESS in cart. coord.  units (eV):
  Direction    XX          YY          ZZ          XY          YZ          ZX
  --------------------------------------------------------------------------------------
  Alpha Z     0.04144     0.04144     0.04144
  Ewald     519.06597    44.72978   142.89340     3.25344     8.57675  -192.56902
  Hartree   553.07207   293.72884   335.09984     6.58269     1.54093   -92.99632
  E(xc)     -59.13339   -60.20460   -59.89232    -0.03245     0.04016    -0.53460
  Local   -1220.52595  -513.00571  -643.39097   -10.72839    -8.47068   272.15327
  n-local   -25.18300   -24.23097   -25.73165     0.68352    -0.25541     2.07482
  augment     0.56665     0.97482     0.89407    -0.00111    -0.00516     0.16406
  Kinetic   232.42875   256.94042   249.03463     0.32693    -1.50909    11.34632
  Fock        0.00000     0.00000     0.00000     0.00000     0.00000     0.00000
  -------------------------------------------------------------------------------------
  Total       0.33253    -1.02598    -1.05154     0.08463    -0.08250    -0.36146
  in kB       0.01973    -0.06088    -0.06240     0.00502    -0.00490    -0.02145
  external pressure =       -0.03 kB  Pullay stress =        0.00 kB


 VOLUME and BASIS-vectors are now :
 -----------------------------------------------------------------------------
  energy-cutoff  :      400.00
  volume of cell :    27000.00
      direct lattice vectors                 reciprocal lattice vectors
    30.000000000  0.000000000  0.000000000     0.033333333  0.000000000  0.000000000
     0.000000000 30.000000000  0.000000000     0.000000000  0.033333333  0.000000000
     0.000000000  0.000000000 30.000000000     0.000000000  0.000000000  0.033333333

  length of vectors
    30.000000000 30.000000000 30.000000000     0.033333333  0.033333333  0.033333333


 FORCES acting on ions
    electron-ion (+dipol)            ewald-force                    non-local-force                 convergence-correction
 -----------------------------------------------------------------------------------------------
   0.281E+02 0.611E+02 0.205E+01   -.296E+02 -.666E+02 -.250E+01   0.128E+01 0.552E+01 0.545E+00   -.367E-04 -.172E-04 -.394E-06
   0.441E+02 -.312E+02 0.402E+02   -.470E+02 0.341E+02 -.442E+02   0.273E+01 -.293E+01 0.404E+01   -.475E-04 -.204E-04 -.284E-05
   0.284E+02 -.191E+02 -.579E+02   -.300E+02 0.210E+02 0.632E+02   0.161E+01 -.187E+01 -.520E+01   -.665E-04 -.179E-04 0.205E-04
   0.119E+03 0.820E+01 -.301E+02   -.127E+03 -.900E+01 0.313E+02   0.744E+01 0.798E+00 -.118E+01   -.266E-03 -.151E-03 -.492E-04
   -.197E+03 0.154E+02 0.121E+03   0.218E+03 -.183E+02 -.136E+03   -.201E+02 0.301E+01 0.159E+02   -.495E-03 -.302E-03 -.931E-04
   -.152E+02 -.348E+02 -.788E+02   0.152E+02 0.388E+02 0.886E+02   -.288E+00 -.425E+01 -.103E+02   -.248E-03 -.359E-03 -.427E-03
 -----------------------------------------------------------------------------------------------
   0.738E+01 -.259E+00 -.375E+01   -.284E-13 0.000E+00 -.142E-13   -.737E+01 0.269E+00 0.375E+01   -.116E-02 -.868E-03 -.552E-03
 
 
 POSITION                                       TOTAL-FORCE (eV/Angst)
 -----------------------------------------------------------------------------------
     14.30720     13.92807     15.07066        -0.161640      0.013031      0.096167
     14.02552     15.56252     14.39476        -0.163281      0.008926      0.097906
     14.25732     15.35271     16.16386         0.028356      0.031672      0.068763
     14.55311     14.99383     15.17261        -0.066340     -0.002103      0.022948
     16.90949     15.02597     14.26027         0.600511      0.175628      0.181281
     15.94765     15.13747     14.93783        -0.237607     -0.227154     -0.467065
 -----------------------------------------------------------------------------------
    total drift:                                0.003877      0.008955      0.003451


--------------------------------------------------------------------------------------------------------



  FREE ENERGIE OF THE ION-ELECTRON SYSTEM (eV)
  ---------------------------------------------------
  free  energy   TOTEN  =       -35.48472874 eV

  energy  without entropy=      -35.48472874  energy(sigma->0) =      -35.48472874
 
 d Force = 0.1498485E-02[ 0.149E-02, 0.150E-02]  d Energy = 0.1498481E-02 0.400E-08
 d Force = 0.2717793E-01[ 0.276E-01, 0.267E-01]  d Ewald  = 0.2717792E-01 0.507E-08


--------------------------------------------------------------------------------------------------------


    POTLOK:  cpu time   18.8151: real time   18.7998


--------------------------------------------------------------------------------------------------------


 NEB: the previous image is higher in energy: F
 NEB: the next image is higher in energy    : T
 NEB: only next energy greater

 NEB: Tangent
 ----------------------------------------------
      0.17496     -0.01790     -0.10600
      0.17109     -0.01114     -0.10353
     -0.01954     -0.04094     -0.07869
      0.07485     -0.00204     -0.03074
     -0.66406     -0.17988     -0.19142
      0.26269      0.25190      0.51038

 NEB: forces: par spring, perp REAL, dneb     0.025994    0.022280    0.000000
 NEB: distance to prev, next image, angle between     0.526232    0.521033  126.695935
 NEB: projections on to tangent (spring, REAL)    -0.025994   -0.912891

 stress matrix after NEB project (eV)
      0.33253      0.08463     -0.36146
      0.08463     -1.02598     -0.08250
     -0.36146     -0.08250     -1.05154
  FORCES: max atom, RMS     0.022919    0.013977
  FORCE total and by dimension    0.034236    0.016094
  Stress total and by dimension    1.599441    1.051543
 OPT: skip step - force has converged


--------------------------------------------------------------------------------------------------------


  
 reached required accuracy - stopping structural energy minimisation
     LOOP+:  cpu time  681.8084: real time  681.2830
    4ORBIT:  cpu time    0.0000: real time    0.0000

 total amount of memory used by VASP on root node  3203889. kBytes
========================================================================

   base      :      30000. kBytes
   nonlr-proj:        693. kBytes
   fftplans  :     924480. kBytes
   grid      :    1872000. kBytes
   one-center:         18. kBytes
   wavefun   :     376698. kBytes
 
  
  
 General timing and accounting informations for this job:
 ========================================================
  
                  Total CPU time used (sec):    97162.664
                            User time (sec):    95671.250
                          System time (sec):     1491.415
                         Elapsed time (sec):    97128.552
  
                   Maximum memory used (kb):     4751004.
                   Average memory used (kb):           0.
  
                          Minor page faults:    112216581
                          Major page faults:            8
                 Voluntary context switches:        15692
