 vasp.5.4.1 24Jun15 (build Jan 13 2020 12:58:22) complex                        
  
 POSCAR found type information on POSCAR  H  C  N 
 06/POSCAR found :  3 types and       6 ions
 scaLAPACK will be used

 ----------------------------------------------------------------------------- 
|                                                                             |
|  ADVICE TO THIS USER RUNNING 'VASP/VAMP'   (HEAR YOUR MASTER'S VOICE ...):  |
|                                                                             |
|      You have a (more or less) 'small supercell' and for smaller cells      |
|      it is recommended  to use the reciprocal-space projection scheme!      |
|      The real space optimization is not  efficient for small cells and it   |
|      is also less accurate ...                                              |
|      Therefore set LREAL=.FALSE. in the  INCAR file                         |
|                                                                             |
 ----------------------------------------------------------------------------- 

 LDA part: xc-table for Pade appr. of Perdew
 POSCAR found type information on POSCAR  H  C  N 
 00/POSCAR found :  3 types and       6 ions
 POSCAR found type information on POSCAR  H  C  N 
 16/POSCAR found :  3 types and       6 ions
 Jacobian:    40.4401846379183     
 POSCAR, INCAR and KPOINTS ok, starting setup
 WARNING: small aliasing (wrap around) errors must be expected
 FFT: planning ...
 WAVECAR not read
 entering main loop
       N       E                     dE             d eps       ncg     rms          rms(c)
DAV:   1     0.112633312656E+03    0.11263E+03   -0.21449E+03   160   0.366E+02
DAV:   2    -0.471411042482E+01   -0.11735E+03   -0.11500E+03   192   0.108E+02
DAV:   3    -0.352349429207E+02   -0.30521E+02   -0.30337E+02   128   0.878E+01
DAV:   4    -0.386799403931E+02   -0.34450E+01   -0.34005E+01   128   0.308E+01
DAV:   5    -0.387793915510E+02   -0.99451E-01   -0.98564E-01   112   0.529E+00    0.105E+01
DAV:   6    -0.360950918970E+02    0.26843E+01   -0.45135E+00   120   0.152E+01    0.569E+00
DAV:   7    -0.354208884035E+02    0.67420E+00   -0.16635E+00   124   0.919E+00    0.240E+00
DAV:   8    -0.353409367581E+02    0.79952E-01   -0.19774E-01   128   0.342E+00    0.975E-01
DAV:   9    -0.353217917715E+02    0.19145E-01   -0.31559E-02   108   0.146E+00    0.238E-01
DAV:  10    -0.353215809689E+02    0.21080E-03   -0.46638E-03   120   0.550E-01    0.132E-01
DAV:  11    -0.353233925305E+02   -0.18116E-02   -0.13301E-03   100   0.296E-01    0.787E-02
DAV:  12    -0.353284185992E+02   -0.50261E-02   -0.27009E-03    96   0.386E-01    0.440E-02
DAV:  13    -0.353339253883E+02   -0.55068E-02   -0.15004E-03   144   0.236E-01    0.273E-02
DAV:  14    -0.353376683030E+02   -0.37429E-02   -0.48725E-04   128   0.118E-01    0.182E-02
DAV:  15    -0.353397708037E+02   -0.21025E-02   -0.15758E-04   120   0.592E-02    0.109E-02
DAV:  16    -0.353421945144E+02   -0.24237E-02   -0.29816E-04   128   0.717E-02    0.613E-03
DAV:  17    -0.353427331745E+02   -0.53866E-03   -0.19084E-05    96   0.278E-02    0.353E-03
DAV:  18    -0.353432814685E+02   -0.54829E-03   -0.39403E-05    92   0.276E-02    0.206E-03
DAV:  19    -0.353434267798E+02   -0.14531E-03   -0.10259E-05    96   0.161E-02    0.118E-03
DAV:  20    -0.353435214226E+02   -0.94643E-04   -0.42195E-06    80   0.106E-02
   1 F= -.35343521E+02 E0= -.35343521E+02  d E =-.353435E+02
damped:  g(F)=  0.000E+00 g(S)=  0.000E+00 dE (1.order)= 0.000E+00
 bond charge predicted
       N       E                     dE             d eps       ncg     rms          rms(c)
DAV:   1    -0.353487058491E+02   -0.52791E-02   -0.37652E-02   104   0.188E+00    0.484E-02
DAV:   2    -0.353487031175E+02    0.27316E-05   -0.31756E-04   128   0.146E-01    0.270E-02
DAV:   3    -0.353487191478E+02   -0.16030E-04   -0.13497E-05    80   0.343E-02    0.788E-03
DAV:   4    -0.353487281724E+02   -0.90246E-05   -0.42119E-06    92   0.179E-02    0.255E-03
DAV:   5    -0.353487332197E+02   -0.50473E-05   -0.84375E-07    72   0.824E-03    0.124E-03
DAV:   6    -0.353487372193E+02   -0.39995E-05   -0.24086E-07    92   0.379E-03
   2 F= -.35348737E+02 E0= -.35348737E+02  d E =-.521580E-02
damped:  g(F)=  0.000E+00 g(S)=  0.000E+00 dE (1.order)= 0.000E+00
 bond charge predicted
       N       E                     dE             d eps       ncg     rms          rms(c)
DAV:   1    -0.353589568233E+02   -0.10224E-01   -0.15355E-01    96   0.380E+00    0.972E-02
DAV:   2    -0.353589039399E+02    0.52883E-04   -0.13119E-03   116   0.296E-01    0.541E-02
DAV:   3    -0.353589264565E+02   -0.22517E-04   -0.55106E-05    96   0.700E-02    0.161E-02
DAV:   4    -0.353589354813E+02   -0.90247E-05   -0.17650E-05    64   0.371E-02    0.511E-03
DAV:   5    -0.353589373524E+02   -0.18711E-05   -0.34698E-06    96   0.169E-02    0.246E-03
DAV:   6    -0.353589392665E+02   -0.19141E-05   -0.98868E-07    64   0.777E-03
   3 F= -.35358939E+02 E0= -.35358939E+02  d E =-.102020E-01
damped:  g(F)=  0.000E+00 g(S)=  0.000E+00 dE (1.order)= 0.000E+00
 bond charge predicted
       N       E                     dE             d eps       ncg     rms          rms(c)
DAV:   1    -0.353740009736E+02   -0.15064E-01   -0.35576E-01    96   0.578E+00    0.146E-01
DAV:   2    -0.353738814719E+02    0.11950E-03   -0.30927E-03   112   0.454E-01    0.820E-02
DAV:   3    -0.353739384704E+02   -0.56999E-04   -0.15034E-04    96   0.107E-01    0.247E-02
DAV:   4    -0.353739580882E+02   -0.19618E-04   -0.23411E-05    96   0.442E-02    0.840E-03
DAV:   5    -0.353739624740E+02   -0.43857E-05   -0.34304E-06    64   0.185E-02    0.346E-03
DAV:   6    -0.353739670979E+02   -0.46240E-05   -0.11700E-06    64   0.834E-03
   4 F= -.35373967E+02 E0= -.35373967E+02  d E =-.150278E-01
damped:  g(F)=  0.000E+00 g(S)=  0.000E+00 dE (1.order)= 0.000E+00
 bond charge predicted
       N       E                     dE             d eps       ncg     rms          rms(c)
DAV:   1    -0.353934624644E+02   -0.19500E-01   -0.65189E-01    96   0.781E+00    0.196E-01
DAV:   2    -0.353932903456E+02    0.17212E-03   -0.57562E-03   112   0.616E-01    0.111E-01
DAV:   3    -0.353933808933E+02   -0.90548E-04   -0.27195E-04   128   0.145E-01    0.330E-02
DAV:   4    -0.353934197695E+02   -0.38876E-04   -0.43971E-05    64   0.605E-02    0.113E-02
DAV:   5    -0.353934291562E+02   -0.93866E-05   -0.63754E-06    64   0.252E-02    0.478E-03
DAV:   6    -0.353934387750E+02   -0.96188E-05   -0.22826E-06    64   0.115E-02
   5 F= -.35393439E+02 E0= -.35393439E+02  d E =-.194717E-01
damped:  g(F)=  0.000E+00 g(S)=  0.000E+00 dE (1.order)= 0.000E+00
 bond charge predicted
       N       E                     dE             d eps       ncg     rms          rms(c)
DAV:   1    -0.354167615428E+02   -0.23332E-01   -0.10421E+00    96   0.986E+00    0.244E-01
DAV:   2    -0.354165828340E+02    0.17871E-03   -0.93543E-03   112   0.782E-01    0.139E-01
DAV:   3    -0.354166967350E+02   -0.11390E-03   -0.42952E-04   128   0.181E-01    0.410E-02
DAV:   4    -0.354167626799E+02   -0.65945E-04   -0.71512E-05    64   0.768E-02    0.144E-02
DAV:   5    -0.354167775874E+02   -0.14907E-04   -0.10280E-05    64   0.319E-02    0.623E-03
DAV:   6    -0.354167931371E+02   -0.15550E-04   -0.37985E-06    80   0.148E-02
   6 F= -.35416793E+02 E0= -.35416793E+02  d E =-.233544E-01
damped:  g(F)=  0.000E+00 g(S)=  0.000E+00 dE (1.order)= 0.000E+00
 bond charge predicted
       N       E                     dE             d eps       ncg     rms          rms(c)
DAV:   1    -0.354430743371E+02   -0.26297E-01   -0.15183E+00    96   0.119E+01    0.290E-01
DAV:   2    -0.354429626556E+02    0.11168E-03   -0.13858E-02   112   0.949E-01    0.168E-01
DAV:   3    -0.354430748127E+02   -0.11216E-03   -0.62421E-04   128   0.218E-01    0.488E-02
DAV:   4    -0.354431693977E+02   -0.94585E-04   -0.10715E-04    80   0.933E-02    0.175E-02
DAV:   5    -0.354431923028E+02   -0.22905E-04   -0.15391E-05    64   0.388E-02    0.774E-03
DAV:   6    -0.354432143100E+02   -0.22007E-04   -0.57419E-06    80   0.183E-02
   7 F= -.35443214E+02 E0= -.35443214E+02  d E =-.264212E-01
damped:  g(F)=  0.000E+00 g(S)=  0.000E+00 dE (1.order)= 0.000E+00
 bond charge predicted
       N       E                     dE             d eps       ncg     rms          rms(c)
DAV:   1    -0.354742461688E+02   -0.31054E-01   -0.25396E+00    96   0.153E+01    0.368E-01
DAV:   2    -0.354743764613E+02   -0.13029E-03   -0.23835E-02   112   0.124E+00    0.217E-01
DAV:   3    -0.354745060017E+02   -0.12954E-03   -0.10388E-03   128   0.280E-01    0.628E-02
DAV:   4    -0.354746451264E+02   -0.13912E-03   -0.21555E-04   112   0.121E-01    0.242E-02
DAV:   5    -0.354746778079E+02   -0.32681E-04   -0.15412E-05    64   0.411E-02    0.113E-02
DAV:   6    -0.354747118385E+02   -0.34031E-04   -0.78967E-06    80   0.235E-02
   8 F= -.35474712E+02 E0= -.35474712E+02  d E =-.314975E-01
damped:  g(F)=  0.000E+00 g(S)=  0.000E+00 dE (1.order)= 0.000E+00
 bond charge predicted
       N       E                     dE             d eps       ncg     rms          rms(c)
DAV:   1    -0.355089420300E+02   -0.34264E-01   -0.39268E+00    96   0.190E+01    0.448E-01
DAV:   2    -0.355096549230E+02   -0.71289E-03   -0.38308E-02   112   0.157E+00    0.270E-01
DAV:   3    -0.355097125863E+02   -0.57663E-04   -0.16228E-03   128   0.352E-01    0.782E-02
DAV:   4    -0.355099249399E+02   -0.21235E-03   -0.34510E-04   120   0.153E-01    0.293E-02
DAV:   5    -0.355099743206E+02   -0.49381E-04   -0.22312E-05    64   0.494E-02    0.140E-02
DAV:   6    -0.355100232002E+02   -0.48880E-04   -0.12991E-05    80   0.304E-02
   9 F= -.35510023E+02 E0= -.35510023E+02  d E =-.353114E-01
damped:  g(F)=  0.000E+00 g(S)=  0.000E+00 dE (1.order)= 0.000E+00
 bond charge predicted
       N       E                     dE             d eps       ncg     rms          rms(c)
DAV:   1    -0.355448312913E+02   -0.34857E-01   -0.54160E+00    96   0.223E+01    0.516E-01
DAV:   2    -0.355468156603E+02   -0.19844E-02   -0.55426E-02   112   0.185E+00    0.324E-01
DAV:   3    -0.355468455512E+02   -0.29891E-04   -0.22601E-03   128   0.408E-01    0.932E-02
DAV:   4    -0.355470806190E+02   -0.23507E-03   -0.47635E-04   112   0.179E-01    0.340E-02
DAV:   5    -0.355471455503E+02   -0.64931E-04   -0.32351E-05    64   0.588E-02    0.161E-02
DAV:   6    -0.355472076230E+02   -0.62073E-04   -0.14144E-05    80   0.307E-02
  10 F= -.35547208E+02 E0= -.35547208E+02  d E =-.371844E-01
damped:  g(F)=  0.000E+00 g(S)=  0.000E+00 dE (1.order)= 0.000E+00
 bond charge predicted
       N       E                     dE             d eps       ncg     rms          rms(c)
DAV:   1    -0.355784714022E+02   -0.31326E-01   -0.73345E+00    96   0.258E+01    0.596E-01
DAV:   2    -0.355812961378E+02   -0.28247E-02   -0.80791E-02   128   0.229E+00    0.382E-01
DAV:   3    -0.355806251123E+02    0.67103E-03   -0.39766E-03   128   0.588E-01    0.125E-01
DAV:   4    -0.355810212246E+02   -0.39611E-03   -0.93754E-04   128   0.261E-01    0.427E-02
DAV:   5    -0.355810830217E+02   -0.61797E-04   -0.70854E-05    96   0.878E-02    0.202E-02
DAV:   6    -0.355811552625E+02   -0.72241E-04   -0.62854E-05    80   0.703E-02
  11 F= -.35581155E+02 E0= -.35581155E+02  d E =-.339476E-01
damped:  g(F)=  0.000E+00 g(S)=  0.000E+00 dE (1.order)= 0.000E+00
 bond charge predicted
       N       E                     dE             d eps       ncg     rms          rms(c)
DAV:   1    -0.355834989446E+02   -0.24159E-02   -0.10905E-01    96   0.318E+00    0.164E-01
DAV:   2    -0.355833207953E+02    0.17815E-03   -0.29060E-03   128   0.489E-01    0.729E-02
DAV:   3    -0.355832610244E+02    0.59771E-04   -0.40947E-04   128   0.196E-01    0.341E-02
DAV:   4    -0.355832975056E+02   -0.36481E-04   -0.12956E-04    80   0.119E-01    0.105E-02
DAV:   5    -0.355833190359E+02   -0.21530E-04   -0.20492E-05    96   0.457E-02    0.510E-03
DAV:   6    -0.355833354699E+02   -0.16434E-04   -0.43163E-06    96   0.205E-02
  12 F= -.35583335E+02 E0= -.35583335E+02  d E =-.218021E-02
damped:  g(F)=  0.000E+00 g(S)=  0.000E+00 dE (1.order)= 0.000E+00
 bond charge predicted
       N       E                     dE             d eps       ncg     rms          rms(c)
DAV:   1    -0.355834433246E+02   -0.12429E-03   -0.22659E-04   128   0.141E-01    0.656E-03
DAV:   2    -0.355834495485E+02   -0.62239E-05   -0.49656E-06    48   0.203E-02    0.365E-03
DAV:   3    -0.355834565807E+02   -0.70322E-05   -0.14320E-06    80   0.116E-02    0.172E-03
DAV:   4    -0.355834644441E+02   -0.78634E-05   -0.80352E-07    96   0.745E-03    0.688E-04
DAV:   5    -0.355834704221E+02   -0.59780E-05   -0.28468E-07    64   0.391E-03    0.320E-04
DAV:   6    -0.355834746416E+02   -0.42195E-05   -0.16243E-07    80   0.196E-03
  13 F= -.35583475E+02 E0= -.35583475E+02  d E =-.139172E-03
damped:  g(F)=  0.000E+00 g(S)=  0.000E+00 dE (1.order)= 0.000E+00
 bond charge predicted
       N       E                     dE             d eps       ncg     rms          rms(c)
DAV:   1    -0.355836157294E+02   -0.14531E-03   -0.72078E-04    96   0.249E-01    0.119E-02
DAV:   2    -0.355836158081E+02   -0.78636E-07   -0.14057E-05    80   0.347E-02    0.636E-03
DAV:   3    -0.355836170564E+02   -0.12483E-05   -0.39641E-06    48   0.200E-02    0.276E-03
DAV:   4    -0.355836188559E+02   -0.17995E-05   -0.16626E-06    80   0.119E-02    0.105E-03
DAV:   5    -0.355836200761E+02   -0.12202E-05   -0.31858E-07    48   0.543E-03    0.430E-04
DAV:   6    -0.355836210138E+02   -0.93771E-06   -0.93275E-08    48   0.233E-03
  14 F= -.35583621E+02 E0= -.35583621E+02  d E =-.146372E-03
damped:  g(F)=  0.000E+00 g(S)=  0.000E+00 dE (1.order)= 0.000E+00
 bond charge predicted
       N       E                     dE             d eps       ncg     rms          rms(c)
DAV:   1    -0.355837733558E+02   -0.15328E-03   -0.10895E-03    96   0.306E-01    0.131E-02
DAV:   2    -0.355837721205E+02    0.12354E-05   -0.17599E-05    80   0.386E-02    0.753E-03
DAV:   3    -0.355837722590E+02   -0.13857E-06   -0.55181E-06    48   0.232E-02    0.305E-03
DAV:   4    -0.355837729236E+02   -0.66460E-06   -0.17759E-06    48   0.124E-02    0.127E-03
DAV:   5    -0.355837733230E+02   -0.39937E-06   -0.32348E-07    48   0.534E-03    0.474E-04
DAV:   6    -0.355837737123E+02   -0.38931E-06   -0.10374E-07    48   0.265E-03
  15 F= -.35583774E+02 E0= -.35583774E+02  d E =-.152699E-03
damped:  g(F)=  0.000E+00 g(S)=  0.000E+00 dE (1.order)= 0.000E+00
 bond charge predicted
       N       E                     dE             d eps       ncg     rms          rms(c)
DAV:   1    -0.355839428238E+02   -0.16950E-03   -0.12895E-03    96   0.338E-01    0.115E-02
DAV:   2    -0.355839419779E+02    0.84586E-06   -0.14468E-05    64   0.348E-02    0.706E-03
DAV:   3    -0.355839424657E+02   -0.48781E-06   -0.55638E-06    48   0.224E-02    0.239E-03
DAV:   4    -0.355839427259E+02   -0.26018E-06   -0.11513E-06    48   0.100E-02    0.136E-03
DAV:   5    -0.355839429245E+02   -0.19865E-06   -0.20465E-07    48   0.429E-03    0.507E-04
DAV:   6    -0.355839431398E+02   -0.21526E-06   -0.89011E-08    48   0.240E-03
  16 F= -.35583943E+02 E0= -.35583943E+02  d E =-.169427E-03
damped:  g(F)=  0.000E+00 g(S)=  0.000E+00 dE (1.order)= 0.000E+00
 bond charge predicted
       N       E                     dE             d eps       ncg     rms          rms(c)
DAV:   1    -0.355841497617E+02   -0.20684E-03   -0.17716E-03    96   0.408E-01    0.114E-02
DAV:   2    -0.355841495332E+02    0.22849E-06   -0.17958E-05    64   0.404E-02    0.650E-03
DAV:   3    -0.355841503137E+02   -0.78047E-06   -0.38812E-06    48   0.181E-02    0.229E-03
DAV:   4    -0.355841505789E+02   -0.26527E-06   -0.84355E-07    48   0.850E-03    0.969E-04
DAV:   5    -0.355841507079E+02   -0.12895E-06   -0.21805E-07    56   0.410E-03    0.554E-04
DAV:   6    -0.355841508924E+02   -0.18456E-06   -0.84896E-08    80   0.244E-03
  17 F= -.35584151E+02 E0= -.35584151E+02  d E =-.207753E-03
damped:  g(F)=  0.000E+00 g(S)=  0.000E+00 dE (1.order)= 0.000E+00
 bond charge predicted
       N       E                     dE             d eps       ncg     rms          rms(c)
DAV:   1    -0.355843994204E+02   -0.24871E-03   -0.27833E-03    96   0.516E-01    0.155E-02
DAV:   2    -0.355843987514E+02    0.66894E-06   -0.35663E-05    64   0.577E-02    0.751E-03
DAV:   3    -0.355843993735E+02   -0.62202E-06   -0.56402E-06    96   0.226E-02    0.346E-03
DAV:   4    -0.355843998216E+02   -0.44814E-06   -0.14879E-06    64   0.118E-02    0.969E-04
DAV:   5    -0.355843999048E+02   -0.83185E-07   -0.37271E-07    48   0.553E-03    0.615E-04
DAV:   6    -0.355844000241E+02   -0.11926E-06   -0.12562E-07    64   0.303E-03
  18 F= -.35584400E+02 E0= -.35584400E+02  d E =-.249132E-03
damped:  g(F)=  0.000E+00 g(S)=  0.000E+00 dE (1.order)= 0.000E+00
 bond charge predicted
       N       E                     dE             d eps       ncg     rms          rms(c)
DAV:   1    -0.355846964654E+02   -0.29656E-03   -0.48191E-03    96   0.679E-01    0.220E-02
DAV:   2    -0.355846944215E+02    0.20439E-05   -0.70073E-05    64   0.805E-02    0.102E-02
DAV:   3    -0.355846949587E+02   -0.53716E-06   -0.11143E-05    96   0.321E-02    0.481E-03
DAV:   4    -0.355846955745E+02   -0.61586E-06   -0.34731E-06    64   0.183E-02    0.138E-03
DAV:   5    -0.355846956875E+02   -0.11293E-06   -0.78082E-07    48   0.818E-03    0.911E-04
DAV:   6    -0.355846958317E+02   -0.14420E-06   -0.22759E-07    48   0.450E-03
  19 F= -.35584696E+02 E0= -.35584696E+02  d E =-.295808E-03
damped:  g(F)=  0.000E+00 g(S)=  0.000E+00 dE (1.order)= 0.000E+00
 bond charge predicted
       N       E                     dE             d eps       ncg     rms          rms(c)
DAV:   1    -0.355850433749E+02   -0.34769E-03   -0.61384E-03    96   0.765E-01    0.237E-02
DAV:   2    -0.355850417076E+02    0.16673E-05   -0.84364E-05    64   0.880E-02    0.115E-02
DAV:   3    -0.355850428706E+02   -0.11630E-05   -0.13192E-05    48   0.349E-02    0.536E-03
DAV:   4    -0.355850438366E+02   -0.96595E-06   -0.37103E-06    80   0.190E-02    0.140E-03
DAV:   5    -0.355850440373E+02   -0.20074E-06   -0.87400E-07    48   0.861E-03    0.875E-04
DAV:   6    -0.355850442975E+02   -0.26021E-06   -0.25892E-07    48   0.460E-03
  20 F= -.35585044E+02 E0= -.35585044E+02  d E =-.348466E-03
damped:  g(F)=  0.000E+00 g(S)=  0.000E+00 dE (1.order)= 0.000E+00
 bond charge predicted
       N       E                     dE             d eps       ncg     rms          rms(c)
DAV:   1    -0.355855237256E+02   -0.47969E-03   -0.62675E-03    96   0.767E-01    0.215E-02
DAV:   2    -0.355855228024E+02    0.92325E-06   -0.64382E-05    64   0.755E-02    0.122E-02
DAV:   3    -0.355855257545E+02   -0.29522E-05   -0.12138E-05    64   0.325E-02    0.419E-03
DAV:   4    -0.355855266755E+02   -0.92097E-06   -0.26356E-06    48   0.152E-02    0.137E-03
DAV:   5    -0.355855269769E+02   -0.30137E-06   -0.71259E-07    48   0.758E-03    0.765E-04
DAV:   6    -0.355855273959E+02   -0.41906E-06   -0.26069E-07    48   0.427E-03
  21 F= -.35585527E+02 E0= -.35585527E+02  d E =-.483098E-03
damped:  g(F)=  0.000E+00 g(S)=  0.000E+00 dE (1.order)= 0.000E+00
 bond charge predicted
       N       E                     dE             d eps       ncg     rms          rms(c)
DAV:   1    -0.355862236299E+02   -0.69665E-03   -0.78295E-03    96   0.841E-01    0.255E-02
DAV:   2    -0.355862193164E+02    0.43135E-05   -0.72242E-05    64   0.765E-02    0.155E-02
DAV:   3    -0.355862235560E+02   -0.42396E-05   -0.24425E-05    80   0.465E-02    0.468E-03
DAV:   4    -0.355862241115E+02   -0.55547E-06   -0.48453E-06    64   0.207E-02    0.268E-03
DAV:   5    -0.355862244908E+02   -0.37935E-06   -0.97133E-07    48   0.962E-03    0.987E-04
DAV:   6    -0.355862248878E+02   -0.39696E-06   -0.36581E-07    64   0.535E-03
  22 F= -.35586225E+02 E0= -.35586225E+02  d E =-.697492E-03
damped:  g(F)=  0.000E+00 g(S)=  0.000E+00 dE (1.order)= 0.000E+00
 bond charge predicted
       N       E                     dE             d eps       ncg     rms          rms(c)
DAV:   1    -0.355872198523E+02   -0.99536E-03   -0.11068E-02    96   0.997E-01    0.293E-02
DAV:   2    -0.355872134511E+02    0.64012E-05   -0.98651E-05    80   0.865E-02    0.179E-02
DAV:   3    -0.355872190427E+02   -0.55916E-05   -0.29620E-05    92   0.509E-02    0.496E-03
DAV:   4    -0.355872198734E+02   -0.83075E-06   -0.61535E-06    52   0.227E-02    0.301E-03
DAV:   5    -0.355872203473E+02   -0.47382E-06   -0.12123E-06    60   0.107E-02    0.117E-03
DAV:   6    -0.355872209087E+02   -0.56145E-06   -0.52892E-07    52   0.623E-03
  23 F= -.35587221E+02 E0= -.35587221E+02  d E =-.996021E-03
damped:  g(F)=  0.000E+00 g(S)=  0.000E+00 dE (1.order)= 0.000E+00
 bond charge predicted
       N       E                     dE             d eps       ncg     rms          rms(c)
DAV:   1    -0.355886851817E+02   -0.14648E-02   -0.17451E-02    96   0.126E+00    0.339E-02
DAV:   2    -0.355886826978E+02    0.24839E-05   -0.17358E-04   104   0.104E-01    0.213E-02
DAV:   3    -0.355886885913E+02   -0.58936E-05   -0.79702E-06    68   0.281E-02    0.389E-03
DAV:   4    -0.355886894622E+02   -0.87085E-06   -0.21018E-06    48   0.117E-02    0.185E-03
DAV:   5    -0.355886902489E+02   -0.78675E-06   -0.42845E-07    64   0.548E-03    0.474E-04
DAV:   6    -0.355886907563E+02   -0.50736E-06   -0.12184E-07    48   0.243E-03
  24 F= -.35588691E+02 E0= -.35588691E+02  d E =-.146985E-02
damped:  g(F)=  0.000E+00 g(S)=  0.000E+00 dE (1.order)= 0.000E+00
 bond charge predicted
       N       E                     dE             d eps       ncg     rms          rms(c)
DAV:   1    -0.355907652448E+02   -0.20750E-02   -0.34110E-02    96   0.176E+00    0.453E-02
DAV:   2    -0.355907652069E+02    0.37898E-07   -0.35779E-04   112   0.151E-01    0.294E-02
DAV:   3    -0.355907710875E+02   -0.58806E-05   -0.19990E-05    72   0.458E-02    0.764E-03
DAV:   4    -0.355907734278E+02   -0.23403E-05   -0.58427E-06    64   0.215E-02    0.296E-03
DAV:   5    -0.355907741874E+02   -0.75961E-06   -0.11681E-06    48   0.989E-03    0.129E-03
DAV:   6    -0.355907750437E+02   -0.85626E-06   -0.37690E-07    48   0.514E-03
  25 F= -.35590775E+02 E0= -.35590775E+02  d E =-.208429E-02
damped:  g(F)=  0.000E+00 g(S)=  0.000E+00 dE (1.order)= 0.000E+00
 bond charge predicted
       N       E                     dE             d eps       ncg     rms          rms(c)
DAV:   1    -0.355937042064E+02   -0.29300E-02   -0.71087E-02    96   0.253E+00    0.579E-02
DAV:   2    -0.355937082847E+02   -0.40783E-05   -0.66700E-04   112   0.202E-01    0.381E-02
DAV:   3    -0.355937218485E+02   -0.13564E-04   -0.33687E-05    80   0.542E-02    0.701E-03
DAV:   4    -0.355937233758E+02   -0.15274E-05   -0.93566E-06    64   0.260E-02    0.358E-03
DAV:   5    -0.355937245329E+02   -0.11571E-05   -0.15445E-06    48   0.101E-02    0.183E-03
DAV:   6    -0.355937259645E+02   -0.14316E-05   -0.58625E-07    84   0.572E-03
  26 F= -.35593726E+02 E0= -.35593726E+02  d E =-.295092E-02
damped:  g(F)=  0.000E+00 g(S)=  0.000E+00 dE (1.order)= 0.000E+00
 bond charge predicted
       N       E                     dE             d eps       ncg     rms          rms(c)
DAV:   1    -0.355973573739E+02   -0.36328E-02   -0.13119E-01    96   0.344E+00    0.772E-02
DAV:   2    -0.355973677815E+02   -0.10408E-04   -0.13713E-03   128   0.297E-01    0.500E-02
DAV:   3    -0.355973715911E+02   -0.38095E-05   -0.69144E-05    96   0.847E-02    0.169E-02
DAV:   4    -0.355973820161E+02   -0.10425E-04   -0.28459E-05    80   0.491E-02    0.581E-03
DAV:   5    -0.355973837214E+02   -0.17053E-05   -0.51352E-06    80   0.219E-02    0.257E-03
DAV:   6    -0.355973852436E+02   -0.15222E-05   -0.17136E-06    48   0.114E-02
  27 F= -.35597385E+02 E0= -.35597385E+02  d E =-.365928E-02
damped:  g(F)=  0.000E+00 g(S)=  0.000E+00 dE (1.order)= 0.000E+00
 bond charge predicted
       N       E                     dE             d eps       ncg     rms          rms(c)
DAV:   1    -0.356012818872E+02   -0.38982E-02   -0.15723E-01    96   0.377E+00    0.793E-02
DAV:   2    -0.356013354594E+02   -0.53572E-04   -0.16500E-03   128   0.309E-01    0.548E-02
DAV:   3    -0.356013502484E+02   -0.14789E-04   -0.69644E-05    80   0.820E-02    0.150E-02
DAV:   4    -0.356013572451E+02   -0.69967E-05   -0.18830E-05    64   0.382E-02    0.531E-03
DAV:   5    -0.356013596736E+02   -0.24285E-05   -0.43009E-06    48   0.173E-02    0.283E-03
DAV:   6    -0.356013622899E+02   -0.26163E-05   -0.13341E-06    60   0.952E-03
  28 F= -.35601362E+02 E0= -.35601362E+02  d E =-.397705E-02
damped:  g(F)=  0.000E+00 g(S)=  0.000E+00 dE (1.order)= 0.000E+00
 bond charge predicted
       N       E                     dE             d eps       ncg     rms          rms(c)
DAV:   1    -0.356013466972E+02    0.12976E-04   -0.14608E-04    48   0.119E-01    0.533E-03
DAV:   2    -0.356013481272E+02   -0.14300E-05   -0.93147E-06    48   0.292E-02    0.288E-03
DAV:   3    -0.356013489539E+02   -0.82674E-06   -0.11143E-06    48   0.987E-03    0.188E-03
DAV:   4    -0.356013504623E+02   -0.15083E-05   -0.64926E-07    68   0.820E-03    0.527E-04
DAV:   5    -0.356013509889E+02   -0.52665E-06   -0.19680E-07    48   0.389E-03    0.387E-04
DAV:   6    -0.356013514642E+02   -0.47530E-06   -0.61130E-08    48   0.173E-03
  29 F= -.35601351E+02 E0= -.35601351E+02  d E =0.108257E-04
damped:  g(F)=  0.000E+00 g(S)=  0.000E+00 dE (1.order)= 0.000E+00
 bond charge predicted
       N       E                     dE             d eps       ncg     rms          rms(c)
DAV:   1    -0.356012820120E+02    0.68977E-04   -0.38361E-04    96   0.188E-01    0.959E-03
DAV:   2    -0.356012815681E+02    0.44393E-06   -0.88760E-06    64   0.279E-02    0.483E-03
DAV:   3    -0.356012815974E+02   -0.29307E-07   -0.22344E-06    48   0.146E-02    0.213E-03
DAV:   4    -0.356012819758E+02   -0.37838E-06   -0.10324E-06    60   0.936E-03    0.729E-04
DAV:   5    -0.356012822064E+02   -0.23068E-06   -0.19791E-07    48   0.414E-03    0.323E-04
DAV:   6    -0.356012824166E+02   -0.21016E-06   -0.54981E-08    48   0.170E-03
  30 F= -.35601282E+02 E0= -.35601282E+02  d E =0.690476E-04
damped:  g(F)=  0.000E+00 g(S)=  0.000E+00 dE (1.order)= 0.000E+00
 bond charge predicted
       N       E                     dE             d eps       ncg     rms          rms(c)
DAV:   1    -0.356011308643E+02    0.15134E-03   -0.42033E-04   100   0.200E-01    0.775E-03
DAV:   2    -0.356011306584E+02    0.20589E-06   -0.72832E-06    56   0.244E-02    0.452E-03
DAV:   3    -0.356011306130E+02    0.45359E-07   -0.16662E-06    48   0.122E-02    0.198E-03
DAV:   4    -0.356011307939E+02   -0.18085E-06   -0.68981E-07    48   0.743E-03    0.772E-04
DAV:   5    -0.356011308932E+02   -0.99362E-07   -0.13349E-07    48   0.307E-03    0.293E-04
DAV:   6    -0.356011309989E+02   -0.10565E-06   -0.42073E-08    48   0.115E-03
  31 F= -.35601131E+02 E0= -.35601131E+02  d E =0.151418E-03
damped:  g(F)=  0.000E+00 g(S)=  0.000E+00 dE (1.order)= 0.000E+00
 bond charge predicted
       N       E                     dE             d eps       ncg     rms          rms(c)
DAV:   1    -0.356008964263E+02    0.23447E-03   -0.69174E-04    96   0.255E-01    0.648E-03
DAV:   2    -0.356008962228E+02    0.20352E-06   -0.64942E-06    48   0.228E-02    0.402E-03
DAV:   3    -0.356008964712E+02   -0.24836E-06   -0.23062E-06    64   0.117E-02    0.149E-03
DAV:   4    -0.356008965150E+02   -0.43833E-07   -0.40565E-07    48   0.548E-03    0.977E-04
DAV:   5    -0.356008966000E+02   -0.85019E-07   -0.11846E-07    52   0.235E-03    0.407E-04
DAV:   6    -0.356008966649E+02   -0.64851E-07   -0.51989E-08    60   0.125E-03
  32 F= -.35600897E+02 E0= -.35600897E+02  d E =0.234334E-03
damped:  g(F)=  0.000E+00 g(S)=  0.000E+00 dE (1.order)= 0.000E+00
 bond charge predicted
       N       E                     dE             d eps       ncg     rms          rms(c)
DAV:   1    -0.356005592644E+02    0.33734E-03   -0.16554E-03    96   0.392E-01    0.984E-03
DAV:   2    -0.356005585398E+02    0.72465E-06   -0.17559E-05    64   0.379E-02    0.542E-03
DAV:   3    -0.356005586981E+02   -0.15829E-06   -0.40415E-06    96   0.171E-02    0.233E-03
DAV:   4    -0.356005588881E+02   -0.19002E-06   -0.95406E-07    64   0.867E-03    0.115E-03
DAV:   5    -0.356005589297E+02   -0.41668E-07   -0.24223E-07    64   0.408E-03    0.497E-04
DAV:   6    -0.356005589545E+02   -0.24779E-07   -0.95145E-08    48   0.214E-03
  33 F= -.35600559E+02 E0= -.35600559E+02  d E =0.337710E-03
damped:  g(F)=  0.000E+00 g(S)=  0.000E+00 dE (1.order)= 0.000E+00
 bond charge predicted
       N       E                     dE             d eps       ncg     rms          rms(c)
DAV:   1    -0.356000714344E+02    0.48750E-03   -0.32072E-03    96   0.544E-01    0.130E-02
DAV:   2    -0.356000705191E+02    0.91526E-06   -0.33790E-05    80   0.519E-02    0.724E-03
DAV:   3    -0.356000707128E+02   -0.19361E-06   -0.66706E-06    96   0.225E-02    0.318E-03
DAV:   4    -0.356000710105E+02   -0.29776E-06   -0.17606E-06    48   0.119E-02    0.136E-03
DAV:   5    -0.356000710508E+02   -0.40287E-07   -0.43814E-07    48   0.564E-03    0.679E-04
DAV:   6    -0.356000710830E+02   -0.32188E-07   -0.15417E-07    48   0.309E-03
  34 F= -.35600071E+02 E0= -.35600071E+02  d E =0.487872E-03
damped:  g(F)=  0.000E+00 g(S)=  0.000E+00 dE (1.order)= 0.000E+00
 bond charge predicted
       N       E                     dE             d eps       ncg     rms          rms(c)
DAV:   1    -0.355993071975E+02    0.76385E-03   -0.65832E-03    96   0.776E-01    0.164E-02
DAV:   2    -0.355993075572E+02   -0.35972E-06   -0.60603E-05    64   0.668E-02    0.983E-03
DAV:   3    -0.355993083905E+02   -0.83329E-06   -0.10513E-05    48   0.277E-02    0.375E-03
DAV:   4    -0.355993088496E+02   -0.45916E-06   -0.24462E-06    48   0.135E-02    0.164E-03
DAV:   5    -0.355993089488E+02   -0.99177E-07   -0.66318E-07    48   0.656E-03    0.869E-04
DAV:   6    -0.355993090425E+02   -0.93689E-07   -0.26309E-07    48   0.378E-03
  35 F= -.35599309E+02 E0= -.35599309E+02  d E =0.762040E-03
damped:  g(F)=  0.000E+00 g(S)=  0.000E+00 dE (1.order)= 0.000E+00
 bond charge predicted
       N       E                     dE             d eps       ncg     rms          rms(c)
DAV:   1    -0.355981512886E+02    0.11577E-02   -0.13523E-02    96   0.111E+00    0.221E-02
DAV:   2    -0.355981551188E+02   -0.38302E-05   -0.12329E-04    80   0.925E-02    0.143E-02
DAV:   3    -0.355981571305E+02   -0.20116E-05   -0.19128E-05    64   0.380E-02    0.480E-03
DAV:   4    -0.355981578590E+02   -0.72853E-06   -0.42450E-06    48   0.170E-02    0.232E-03
DAV:   5    -0.355981581135E+02   -0.25457E-06   -0.12626E-06    48   0.861E-03    0.130E-03
DAV:   6    -0.355981583445E+02   -0.23092E-06   -0.44492E-07    48   0.471E-03
  36 F= -.35598158E+02 E0= -.35598158E+02  d E =0.115070E-02
damped:  g(F)=  0.000E+00 g(S)=  0.000E+00 dE (1.order)= 0.000E+00
 bond charge predicted
       N       E                     dE             d eps       ncg     rms          rms(c)
DAV:   1    -0.355964107317E+02    0.17474E-02   -0.28668E-02    96   0.162E+00    0.317E-02
DAV:   2    -0.355964245865E+02   -0.13855E-04   -0.30877E-04   128   0.136E-01    0.225E-02
DAV:   3    -0.355964249110E+02   -0.32449E-06   -0.11927E-05    64   0.338E-02    0.869E-03
DAV:   4    -0.355964265509E+02   -0.16399E-05   -0.34134E-06    64   0.171E-02    0.268E-03
DAV:   5    -0.355964268954E+02   -0.34456E-06   -0.85333E-07    48   0.769E-03    0.145E-03
DAV:   6    -0.355964271853E+02   -0.28987E-06   -0.25268E-07    48   0.398E-03
  37 F= -.35596427E+02 E0= -.35596427E+02  d E =0.173116E-02
damped:  g(F)=  0.000E+00 g(S)=  0.000E+00 dE (1.order)= 0.000E+00
 bond charge predicted
       N       E                     dE             d eps       ncg     rms          rms(c)
DAV:   1    -0.355938388972E+02    0.25880E-02   -0.60942E-02    96   0.235E+00    0.448E-02
DAV:   2    -0.355938663171E+02   -0.27420E-04   -0.63152E-04   128   0.192E-01    0.311E-02
DAV:   3    -0.355938687875E+02   -0.24704E-05   -0.20043E-05    64   0.437E-02    0.110E-02
DAV:   4    -0.355938717846E+02   -0.29972E-05   -0.62650E-06    64   0.222E-02    0.320E-03
DAV:   5    -0.355938724248E+02   -0.64020E-06   -0.15323E-06    48   0.103E-02    0.178E-03
DAV:   6    -0.355938729651E+02   -0.54030E-06   -0.45090E-07    48   0.506E-03
  38 F= -.35593873E+02 E0= -.35593873E+02  d E =0.255422E-02
damped:  g(F)=  0.000E+00 g(S)=  0.000E+00 dE (1.order)= 0.000E+00
 bond charge predicted
       N       E                     dE             d eps       ncg     rms          rms(c)
DAV:   1    -0.355900840841E+02    0.37883E-02   -0.12789E-01    96   0.341E+00    0.650E-02
DAV:   2    -0.355901332898E+02   -0.49206E-04   -0.13105E-03   128   0.278E-01    0.438E-02
DAV:   3    -0.355901387042E+02   -0.54144E-05   -0.37592E-05    96   0.605E-02    0.152E-02
DAV:   4    -0.355901456959E+02   -0.69917E-05   -0.14435E-05    64   0.332E-02    0.402E-03
DAV:   5    -0.355901468884E+02   -0.11925E-05   -0.33087E-06    48   0.155E-02    0.236E-03
DAV:   6    -0.355901480135E+02   -0.11251E-05   -0.95039E-07    64   0.772E-03
  39 F= -.35590148E+02 E0= -.35590148E+02  d E =0.372495E-02
damped:  g(F)=  0.000E+00 g(S)=  0.000E+00 dE (1.order)= 0.000E+00
 bond charge predicted
       N       E                     dE             d eps       ncg     rms          rms(c)
DAV:   1    -0.355844663147E+02    0.56806E-02   -0.25176E-01    96   0.479E+00    0.913E-02
DAV:   2    -0.355845674052E+02   -0.10109E-03   -0.25728E-03   128   0.390E-01    0.618E-02
DAV:   3    -0.355845789757E+02   -0.11570E-04   -0.74400E-05    96   0.849E-02    0.204E-02
DAV:   4    -0.355845931080E+02   -0.14132E-04   -0.26486E-05    64   0.448E-02    0.557E-03
DAV:   5    -0.355845957913E+02   -0.26832E-05   -0.61401E-06    48   0.209E-02    0.315E-03
DAV:   6    -0.355845981773E+02   -0.23861E-05   -0.17301E-06    64   0.101E-02
  40 F= -.35584598E+02 E0= -.35584598E+02  d E =0.554984E-02
damped:  g(F)=  0.000E+00 g(S)=  0.000E+00 dE (1.order)= 0.000E+00
 bond charge predicted
       N       E                     dE             d eps       ncg     rms          rms(c)
DAV:   1    -0.355760004353E+02    0.85954E-02   -0.47768E-01    96   0.660E+00    0.127E-01
DAV:   2    -0.355762224017E+02   -0.22197E-03   -0.49130E-03   128   0.539E-01    0.872E-02
DAV:   3    -0.355762473206E+02   -0.24919E-04   -0.18912E-04   128   0.124E-01    0.275E-02
DAV:   4    -0.355762682229E+02   -0.20902E-04   -0.33627E-05    64   0.532E-02    0.913E-03
DAV:   5    -0.355762736576E+02   -0.54347E-05   -0.60952E-06    48   0.238E-02    0.406E-03
DAV:   6    -0.355762776509E+02   -0.39933E-05   -0.15875E-06    64   0.107E-02
  41 F= -.35576278E+02 E0= -.35576278E+02  d E =0.832053E-02
damped:  g(F)=  0.000E+00 g(S)=  0.000E+00 dE (1.order)= 0.000E+00
 bond charge predicted
       N       E                     dE             d eps       ncg     rms          rms(c)
DAV:   1    -0.355633586481E+02    0.12915E-01   -0.91940E-01    96   0.917E+00    0.181E-01
DAV:   2    -0.355637142063E+02   -0.35556E-03   -0.92696E-03   128   0.741E-01    0.121E-01
DAV:   3    -0.355637504144E+02   -0.36208E-04   -0.34170E-04   128   0.165E-01    0.366E-02
DAV:   4    -0.355637920166E+02   -0.41602E-04   -0.65325E-05    64   0.722E-02    0.121E-02
DAV:   5    -0.355638021490E+02   -0.10132E-04   -0.10733E-05    96   0.317E-02    0.560E-03
DAV:   6    -0.355638095324E+02   -0.73835E-05   -0.29062E-06    64   0.142E-02
  42 F= -.35563810E+02 E0= -.35563810E+02  d E =0.124681E-01
damped:  g(F)=  0.000E+00 g(S)=  0.000E+00 dE (1.order)= 0.000E+00
 bond charge predicted
       N       E                     dE             d eps       ncg     rms          rms(c)
DAV:   1    -0.355441616789E+02    0.19640E-01   -0.17092E+00    96   0.125E+01    0.256E-01
DAV:   2    -0.355447965815E+02   -0.63490E-03   -0.17058E-02   128   0.102E+00    0.168E-01
DAV:   3    -0.355448521120E+02   -0.55530E-04   -0.64441E-04   128   0.225E-01    0.491E-02
DAV:   4    -0.355449317013E+02   -0.79589E-04   -0.12237E-04    80   0.983E-02    0.167E-02
DAV:   5    -0.355449525021E+02   -0.20801E-04   -0.19514E-05    64   0.428E-02    0.783E-03
DAV:   6    -0.355449669088E+02   -0.14407E-04   -0.54802E-06    80   0.195E-02
  43 F= -.35544967E+02 E0= -.35544967E+02  d E =0.188426E-01
damped:  g(F)=  0.000E+00 g(S)=  0.000E+00 dE (1.order)= 0.000E+00
 bond charge predicted
       N       E                     dE             d eps       ncg     rms          rms(c)
DAV:   1    -0.355151750345E+02    0.29777E-01   -0.30072E+00    96   0.166E+01    0.355E-01
DAV:   2    -0.355163457479E+02   -0.11707E-02   -0.30002E-02   128   0.136E+00    0.231E-01
DAV:   3    -0.355164309449E+02   -0.85197E-04   -0.12096E-03   128   0.310E-01    0.647E-02
DAV:   4    -0.355165384193E+02   -0.10747E-03   -0.25576E-04   112   0.134E-01    0.237E-02
DAV:   5    -0.355165715321E+02   -0.33113E-04   -0.17235E-05    64   0.431E-02    0.115E-02
DAV:   6    -0.355165994053E+02   -0.27873E-04   -0.70361E-06    80   0.221E-02
  44 F= -.35516599E+02 E0= -.35516599E+02  d E =0.283675E-01
damped:  g(F)=  0.000E+00 g(S)=  0.000E+00 dE (1.order)= 0.000E+00
 bond charge predicted
       N       E                     dE             d eps       ncg     rms          rms(c)
DAV:   1    -0.354779756385E+02    0.38596E-01   -0.43698E+00    96   0.201E+01    0.463E-01
DAV:   2    -0.354785431778E+02   -0.56754E-03   -0.44080E-02   128   0.170E+00    0.285E-01
DAV:   3    -0.354784410113E+02    0.10217E-03   -0.20391E-03   128   0.399E-01    0.107E-01
DAV:   4    -0.354787164626E+02   -0.27545E-03   -0.41857E-04   128   0.176E-01    0.324E-02
DAV:   5    -0.354787671612E+02   -0.50699E-04   -0.35550E-05    64   0.603E-02    0.144E-02
DAV:   6    -0.354788006400E+02   -0.33479E-04   -0.15976E-05    80   0.370E-02
  45 F= -.35478801E+02 E0= -.35478801E+02  d E =0.377988E-01
damped:  g(F)=  0.000E+00 g(S)=  0.000E+00 dE (1.order)= 0.000E+00
 bond charge predicted
       N       E                     dE             d eps       ncg     rms          rms(c)
DAV:   1    -0.354800463557E+02   -0.12792E-02   -0.37407E-02    96   0.187E+00    0.949E-02
DAV:   2    -0.354799860317E+02    0.60324E-04   -0.99642E-04   128   0.289E-01    0.436E-02
DAV:   3    -0.354799726352E+02    0.13396E-04   -0.11760E-04    96   0.116E-01    0.218E-02
DAV:   4    -0.354800046784E+02   -0.32043E-04   -0.11871E-04    80   0.106E-01    0.917E-03
DAV:   5    -0.354800119228E+02   -0.72444E-05   -0.19820E-05    96   0.468E-02    0.577E-03
DAV:   6    -0.354800223433E+02   -0.10421E-04   -0.51766E-06    64   0.236E-02
  46 F= -.35480022E+02 E0= -.35480022E+02  d E =-.122170E-02
damped:  g(F)=  0.000E+00 g(S)=  0.000E+00 dE (1.order)= 0.000E+00
 bond charge predicted
       N       E                     dE             d eps       ncg     rms          rms(c)
DAV:   1    -0.354789177728E+02    0.10942E-02   -0.37179E-02    96   0.187E+00    0.942E-02
DAV:   2    -0.354788330042E+02    0.84769E-04   -0.10389E-03   128   0.294E-01    0.441E-02
DAV:   3    -0.354788086491E+02    0.24355E-04   -0.12560E-04    96   0.117E-01    0.218E-02
DAV:   4    -0.354788205163E+02   -0.11867E-04   -0.10110E-04    80   0.997E-02    0.840E-03
DAV:   5    -0.354788237087E+02   -0.31925E-05   -0.18209E-05    96   0.456E-02    0.454E-03
DAV:   6    -0.354788275120E+02   -0.38033E-05   -0.50790E-06    84   0.215E-02
  47 F= -.35478828E+02 E0= -.35478828E+02  d E =0.119483E-02
damped:  g(F)=  0.000E+00 g(S)=  0.000E+00 dE (1.order)= 0.000E+00
 bond charge predicted
       N       E                     dE             d eps       ncg     rms          rms(c)
DAV:   1    -0.354788242896E+02   -0.58086E-06   -0.21810E-03    96   0.454E-01    0.193E-02
DAV:   2    -0.354788213182E+02    0.29714E-05   -0.46182E-05    96   0.665E-02    0.971E-03
DAV:   3    -0.354788219989E+02   -0.68068E-06   -0.10639E-05    64   0.330E-02    0.503E-03
DAV:   4    -0.354788247946E+02   -0.27957E-05   -0.59375E-06    64   0.231E-02    0.199E-03
DAV:   5    -0.354788263074E+02   -0.15128E-05   -0.10998E-06    48   0.108E-02    0.104E-03
DAV:   6    -0.354788274293E+02   -0.11218E-05   -0.24696E-07    84   0.469E-03
  48 F= -.35478827E+02 E0= -.35478827E+02  d E =0.827818E-07
damped:  g(F)=  0.000E+00 g(S)=  0.000E+00 dE (1.order)= 0.000E+00
 bond charge predicted
       N       E                     dE             d eps       ncg     rms          rms(c)
DAV:   1    -0.354785692920E+02    0.25702E-03   -0.68063E-03    96   0.802E-01    0.332E-02
DAV:   2    -0.354785563209E+02    0.12971E-04   -0.16158E-04   112   0.115E-01    0.170E-02
DAV:   3    -0.354785519358E+02    0.43851E-05   -0.16829E-05    96   0.434E-02    0.926E-03
DAV:   4    -0.354785524061E+02   -0.47026E-06   -0.15761E-05    80   0.390E-02    0.347E-03
DAV:   5    -0.354785525580E+02   -0.15192E-06   -0.27897E-06    88   0.176E-02    0.191E-03
DAV:   6    -0.354785528160E+02   -0.25799E-06   -0.65437E-07    72   0.741E-03
  49 F= -.35478553E+02 E0= -.35478553E+02  d E =0.274613E-03
damped:  g(F)=  0.000E+00 g(S)=  0.000E+00 dE (1.order)= 0.000E+00
 bond charge predicted
       N       E                     dE             d eps       ncg     rms          rms(c)
DAV:   1    -0.354777691981E+02    0.78336E-03   -0.10106E-02    96   0.979E-01    0.378E-02
DAV:   2    -0.354777504478E+02    0.18750E-04   -0.23109E-04    96   0.135E-01    0.200E-02
DAV:   3    -0.354777439598E+02    0.64879E-05   -0.21639E-05    96   0.492E-02    0.114E-02
DAV:   4    -0.354777440215E+02   -0.61698E-07   -0.21635E-05    80   0.456E-02    0.412E-03
DAV:   5    -0.354777442917E+02   -0.27014E-06   -0.38961E-06    52   0.209E-02    0.236E-03
DAV:   6    -0.354777447984E+02   -0.50676E-06   -0.90028E-07    60   0.871E-03
  50 F= -.35477745E+02 E0= -.35477745E+02  d E =0.808018E-03
damped:  g(F)=  0.000E+00 g(S)=  0.000E+00 dE (1.order)= 0.000E+00
 bond charge predicted
       N       E                     dE             d eps       ncg     rms          rms(c)
DAV:   1    -0.354764141438E+02    0.13301E-02   -0.92759E-03    96   0.938E-01    0.314E-02
DAV:   2    -0.354764014955E+02    0.12648E-04   -0.17824E-04    96   0.118E-01    0.172E-02
DAV:   3    -0.354763976309E+02    0.38646E-05   -0.13952E-05    48   0.393E-02    0.101E-02
DAV:   4    -0.354763986306E+02   -0.99968E-06   -0.13910E-05    48   0.366E-02    0.342E-03
DAV:   5    -0.354763991635E+02   -0.53298E-06   -0.25729E-06    48   0.168E-02    0.203E-03
DAV:   6    -0.354763999029E+02   -0.73935E-06   -0.60592E-07    80   0.713E-03
  51 F= -.35476400E+02 E0= -.35476400E+02  d E =0.134490E-02
damped:  g(F)=  0.000E+00 g(S)=  0.000E+00 dE (1.order)= 0.000E+00
 bond charge predicted
       N       E                     dE             d eps       ncg     rms          rms(c)
DAV:   1    -0.354748317768E+02    0.15674E-02   -0.68138E-03    96   0.798E-01    0.215E-02
DAV:   2    -0.354748260269E+02    0.57500E-05   -0.67353E-05    64   0.765E-02    0.115E-02
DAV:   3    -0.354748275821E+02   -0.15552E-05   -0.11325E-05    48   0.312E-02    0.519E-03
DAV:   4    -0.354748293185E+02   -0.17364E-05   -0.38973E-06    48   0.182E-02    0.179E-03
DAV:   5    -0.354748299057E+02   -0.58721E-06   -0.91384E-07    48   0.865E-03    0.973E-04
DAV:   6    -0.354748305405E+02   -0.63478E-06   -0.31223E-07    48   0.462E-03
  52 F= -.35474831E+02 E0= -.35474831E+02  d E =0.156936E-02
damped:  g(F)=  0.000E+00 g(S)=  0.000E+00 dE (1.order)= 0.000E+00
 bond charge predicted
       N       E                     dE             d eps       ncg     rms          rms(c)
DAV:   1    -0.354732213289E+02    0.16086E-02   -0.64918E-03    96   0.777E-01    0.202E-02
DAV:   2    -0.354732190699E+02    0.22590E-05   -0.55211E-05    64   0.651E-02    0.122E-02
DAV:   3    -0.354732231702E+02   -0.41002E-05   -0.10182E-05    72   0.293E-02    0.303E-03
DAV:   4    -0.354732238618E+02   -0.69168E-06   -0.23648E-06    48   0.126E-02    0.160E-03
DAV:   5    -0.354732243230E+02   -0.46115E-06   -0.70940E-07    48   0.653E-03    0.796E-04
DAV:   6    -0.354732248246E+02   -0.50161E-06   -0.27323E-07    48   0.391E-03
  53 F= -.35473225E+02 E0= -.35473225E+02  d E =0.160572E-02
damped:  g(F)=  0.000E+00 g(S)=  0.000E+00 dE (1.order)= 0.000E+00
 bond charge predicted
       N       E                     dE             d eps       ncg     rms          rms(c)
DAV:   1    -0.354713048929E+02    0.19194E-02   -0.10660E-02    96   0.101E+00    0.314E-02
DAV:   2    -0.354713021611E+02    0.27318E-05   -0.17298E-04    96   0.111E-01    0.201E-02
DAV:   3    -0.354713011831E+02    0.97797E-06   -0.14160E-05    96   0.407E-02    0.918E-03
DAV:   4    -0.354713049724E+02   -0.37894E-05   -0.73884E-06    64   0.271E-02    0.288E-03
DAV:   5    -0.354713052741E+02   -0.30168E-06   -0.13447E-06    96   0.115E-02    0.152E-03
DAV:   6    -0.354713056336E+02   -0.35945E-06   -0.48388E-07    64   0.682E-03
  54 F= -.35471306E+02 E0= -.35471306E+02  d E =0.191919E-02
damped:  g(F)=  0.000E+00 g(S)=  0.000E+00 dE (1.order)= 0.000E+00
 bond charge predicted
       N       E                     dE             d eps       ncg     rms          rms(c)
DAV:   1    -0.354687385212E+02    0.25668E-02   -0.16742E-02    96   0.127E+00    0.405E-02
DAV:   2    -0.354687332745E+02    0.52467E-05   -0.29387E-04    96   0.145E-01    0.257E-02
DAV:   3    -0.354687300417E+02    0.32328E-05   -0.23252E-05    96   0.525E-02    0.122E-02
DAV:   4    -0.354687357385E+02   -0.56968E-05   -0.14121E-05    64   0.373E-02    0.377E-03
DAV:   5    -0.354687361541E+02   -0.41562E-06   -0.25358E-06    60   0.160E-02    0.197E-03
DAV:   6    -0.354687367416E+02   -0.58754E-06   -0.80809E-07    80   0.879E-03
  55 F= -.35468737E+02 E0= -.35468737E+02  d E =0.256889E-02
damped:  g(F)=  0.000E+00 g(S)=  0.000E+00 dE (1.order)= 0.000E+00
 bond charge predicted
       N       E                     dE             d eps       ncg     rms          rms(c)
DAV:   1    -0.354656271693E+02    0.31090E-02   -0.20533E-02    96   0.139E+00    0.374E-02
DAV:   2    -0.354656233455E+02    0.38238E-05   -0.23447E-04   112   0.125E-01    0.237E-02
DAV:   3    -0.354656291821E+02   -0.58366E-05   -0.16225E-05    64   0.423E-02    0.778E-03
DAV:   4    -0.354656320625E+02   -0.28804E-05   -0.42625E-06    48   0.206E-02    0.282E-03
DAV:   5    -0.354656327396E+02   -0.67714E-06   -0.94680E-07    48   0.925E-03    0.138E-03
DAV:   6    -0.354656334912E+02   -0.75156E-06   -0.36252E-07    64   0.547E-03
  56 F= -.35465633E+02 E0= -.35465633E+02  d E =0.310325E-02
damped:  g(F)=  0.000E+00 g(S)=  0.000E+00 dE (1.order)= 0.000E+00
 bond charge predicted
       N       E                     dE             d eps       ncg     rms          rms(c)
DAV:   1    -0.354623960929E+02    0.32366E-02   -0.30381E-02    96   0.167E+00    0.429E-02
DAV:   2    -0.354623843252E+02    0.11768E-04   -0.29646E-04    96   0.146E-01    0.257E-02
DAV:   3    -0.354623895818E+02   -0.52566E-05   -0.18192E-05    96   0.435E-02    0.871E-03
DAV:   4    -0.354623934902E+02   -0.39085E-05   -0.65444E-06    64   0.241E-02    0.304E-03
DAV:   5    -0.354623941548E+02   -0.66458E-06   -0.11246E-06    96   0.106E-02    0.115E-03
DAV:   6    -0.354623946782E+02   -0.52342E-06   -0.39960E-07    64   0.523E-03
  57 F= -.35462395E+02 E0= -.35462395E+02  d E =0.323881E-02
damped:  g(F)=  0.000E+00 g(S)=  0.000E+00 dE (1.order)= 0.000E+00
 bond charge predicted
       N       E                     dE             d eps       ncg     rms          rms(c)
DAV:   1    -0.354588050793E+02    0.35891E-02   -0.50044E-02    96   0.216E+00    0.619E-02
DAV:   2    -0.354587685153E+02    0.36564E-04   -0.67903E-04    96   0.229E-01    0.370E-02
DAV:   3    -0.354587582733E+02    0.10242E-04   -0.52081E-05    96   0.752E-02    0.194E-02
DAV:   4    -0.354587670040E+02   -0.87307E-05   -0.36843E-05    96   0.598E-02    0.603E-03
DAV:   5    -0.354587680261E+02   -0.10221E-05   -0.68204E-06    80   0.267E-02    0.306E-03
DAV:   6    -0.354587692940E+02   -0.12679E-05   -0.17603E-06    80   0.123E-02
  58 F= -.35458769E+02 E0= -.35458769E+02  d E =0.362538E-02
damped:  g(F)=  0.000E+00 g(S)=  0.000E+00 dE (1.order)= 0.000E+00
 bond charge predicted
       N       E                     dE             d eps       ncg     rms          rms(c)
DAV:   1    -0.354546427242E+02    0.41253E-02   -0.46727E-02    96   0.207E+00    0.546E-02
DAV:   2    -0.354546232813E+02    0.19443E-04   -0.47356E-04   120   0.185E-01    0.335E-02
DAV:   3    -0.354546273800E+02   -0.40986E-05   -0.33522E-05    72   0.591E-02    0.125E-02
DAV:   4    -0.354546341778E+02   -0.67978E-05   -0.12187E-05    48   0.336E-02    0.418E-03
DAV:   5    -0.354546360843E+02   -0.19065E-05   -0.20947E-06    64   0.146E-02    0.155E-03
DAV:   6    -0.354546378117E+02   -0.17273E-05   -0.65764E-07    80   0.679E-03
  59 F= -.35454638E+02 E0= -.35454638E+02  d E =0.413148E-02
damped:  g(F)=  0.000E+00 g(S)=  0.000E+00 dE (1.order)= 0.000E+00
 bond charge predicted
       N       E                     dE             d eps       ncg     rms          rms(c)
DAV:   1    -0.354546863434E+02   -0.50259E-04   -0.19007E-04    48   0.136E-01    0.609E-03
DAV:   2    -0.354546878722E+02   -0.15288E-05   -0.10853E-05    64   0.332E-02    0.304E-03
DAV:   3    -0.354546886365E+02   -0.76435E-06   -0.11407E-06    48   0.108E-02    0.187E-03
DAV:   4    -0.354546901917E+02   -0.15552E-05   -0.90636E-07    80   0.101E-02    0.650E-04
DAV:   5    -0.354546905574E+02   -0.36567E-06   -0.23294E-07    48   0.466E-03    0.512E-04
DAV:   6    -0.354546908922E+02   -0.33484E-06   -0.60732E-08    48   0.180E-03
  60 F= -.35454691E+02 E0= -.35454691E+02  d E =-.530805E-04
damped:  g(F)=  0.000E+00 g(S)=  0.000E+00 dE (1.order)= 0.000E+00
 bond charge predicted
       N       E                     dE             d eps       ncg     rms          rms(c)
DAV:   1    -0.354547613010E+02   -0.70744E-04   -0.65621E-04   116   0.248E-01    0.126E-02
DAV:   2    -0.354547597144E+02    0.15866E-05   -0.15076E-05    64   0.390E-02    0.568E-03
DAV:   3    -0.354547597016E+02    0.12812E-07   -0.39038E-06    92   0.200E-02    0.252E-03
DAV:   4    -0.354547602253E+02   -0.52370E-06   -0.21499E-06    64   0.139E-02    0.992E-04
DAV:   5    -0.354547604234E+02   -0.19809E-06   -0.42557E-07    48   0.632E-03    0.588E-04
DAV:   6    -0.354547606112E+02   -0.18781E-06   -0.10910E-07    88   0.286E-03
  61 F= -.35454761E+02 E0= -.35454761E+02  d E =-.697190E-04
damped:  g(F)=  0.000E+00 g(S)=  0.000E+00 dE (1.order)= 0.000E+00
 bond charge predicted
       N       E                     dE             d eps       ncg     rms          rms(c)
DAV:   1    -0.354548161429E+02   -0.55720E-04   -0.10310E-03    96   0.312E-01    0.155E-02
DAV:   2    -0.354548128909E+02    0.32520E-05   -0.23554E-05    64   0.485E-02    0.698E-03
DAV:   3    -0.354548123843E+02    0.50657E-06   -0.59966E-06    96   0.246E-02    0.311E-03
DAV:   4    -0.354548125522E+02   -0.16789E-06   -0.31594E-06    64   0.169E-02    0.124E-03
DAV:   5    -0.354548126057E+02   -0.53505E-07   -0.60489E-07    48   0.767E-03    0.754E-04
DAV:   6    -0.354548126646E+02   -0.58903E-07   -0.14753E-07    80   0.359E-03
  62 F= -.35454813E+02 E0= -.35454813E+02  d E =-.520534E-04
damped:  g(F)=  0.000E+00 g(S)=  0.000E+00 dE (1.order)= 0.000E+00
 bond charge predicted
       N       E                     dE             d eps       ncg     rms          rms(c)
DAV:   1    -0.354548445011E+02   -0.31895E-04   -0.94198E-04   112   0.299E-01    0.144E-02
DAV:   2    -0.354548415360E+02    0.29651E-05   -0.21610E-05    64   0.460E-02    0.640E-03
DAV:   3    -0.354548410803E+02    0.45575E-06   -0.53756E-06    48   0.229E-02    0.290E-03
DAV:   4    -0.354548411622E+02   -0.81963E-07   -0.25975E-06    56   0.153E-02    0.119E-03
DAV:   5    -0.354548412023E+02   -0.40114E-07   -0.50719E-07    48   0.703E-03    0.731E-04
DAV:   6    -0.354548412749E+02   -0.72548E-07   -0.13187E-07    48   0.339E-03
  63 F= -.35454841E+02 E0= -.35454841E+02  d E =-.286103E-04
damped:  g(F)=  0.000E+00 g(S)=  0.000E+00 dE (1.order)= 0.000E+00
 bond charge predicted
       N       E                     dE             d eps       ncg     rms          rms(c)
DAV:   1    -0.354548462693E+02   -0.50670E-05   -0.15854E-06    48   0.123E-02    0.573E-04
DAV:   2    -0.354548463679E+02   -0.98525E-07   -0.12585E-07    48   0.317E-03    0.338E-04
DAV:   3    -0.354548464683E+02   -0.10047E-06   -0.35700E-08    48   0.107E-03    0.208E-04
DAV:   4    -0.354548466657E+02   -0.19732E-06   -0.36140E-08    64   0.912E-04    0.771E-05
DAV:   5    -0.354548467286E+02   -0.62968E-07   -0.28856E-08    48   0.429E-04    0.532E-05
DAV:   6    -0.354548468432E+02   -0.11459E-06   -0.29571E-08    48   0.280E-04
  64 F= -.35454847E+02 E0= -.35454847E+02  d E =-.556833E-05
damped:  g(F)=  0.000E+00 g(S)=  0.000E+00 dE (1.order)= 0.000E+00
 bond charge predicted
       N       E                     dE             d eps       ncg     rms          rms(c)
DAV:   1    -0.354548571604E+02   -0.10432E-04   -0.59246E-06    48   0.236E-02    0.107E-03
DAV:   2    -0.354548572192E+02   -0.58805E-07   -0.37831E-07    48   0.589E-03    0.596E-04
DAV:   3    -0.354548572643E+02   -0.45118E-07   -0.68680E-08    48   0.195E-03    0.370E-04
DAV:   4    -0.354548573508E+02   -0.86450E-07   -0.57201E-08    68   0.167E-03    0.119E-04
DAV:   5    -0.354548573822E+02   -0.31415E-07   -0.38361E-08    48   0.774E-04    0.821E-05
DAV:   6    -0.354548574175E+02   -0.35340E-07   -0.34504E-08    48   0.338E-04
  65 F= -.35454857E+02 E0= -.35454857E+02  d E =-.105743E-04
damped:  g(F)=  0.000E+00 g(S)=  0.000E+00 dE (1.order)= 0.000E+00
 bond charge predicted
       N       E                     dE             d eps       ncg     rms          rms(c)
DAV:   1    -0.354548734044E+02   -0.16022E-04   -0.12365E-05    48   0.342E-02    0.155E-03
DAV:   2    -0.354548734284E+02   -0.23972E-07   -0.76461E-07    64   0.852E-03    0.864E-04
DAV:   3    -0.354548734329E+02   -0.44681E-08   -0.11412E-07    48   0.282E-03    0.538E-04
DAV:   4    -0.354548734553E+02   -0.22372E-07   -0.86792E-08    64   0.241E-03    0.172E-04
DAV:   5    -0.354548734649E+02   -0.96298E-08   -0.46987E-08    48   0.112E-03    0.120E-04
DAV:   6    -0.354548734752E+02   -0.10289E-07   -0.37633E-08    48   0.474E-04
  66 F= -.35454873E+02 E0= -.35454873E+02  d E =-.160576E-04
damped:  g(F)=  0.000E+00 g(S)=  0.000E+00 dE (1.order)= 0.000E+00
 bond charge predicted
       N       E                     dE             d eps       ncg     rms          rms(c)
DAV:   1    -0.354548957247E+02   -0.22260E-04   -0.19667E-05    48   0.431E-02    0.194E-03
DAV:   2    -0.354548957271E+02   -0.24532E-08   -0.11979E-06    52   0.107E-02    0.109E-03
DAV:   3    -0.354548957076E+02    0.19519E-07   -0.16199E-07    48   0.356E-03    0.681E-04
DAV:   4    -0.354548957006E+02    0.70294E-08   -0.11769E-07    48   0.304E-03    0.219E-04
DAV:   5    -0.354548957038E+02   -0.32494E-08   -0.54285E-08    48   0.141E-03    0.152E-04
DAV:   6    -0.354548957081E+02   -0.43392E-08   -0.39198E-08    48   0.598E-04
  67 F= -.35454896E+02 E0= -.35454896E+02  d E =-.222330E-04
damped:  g(F)=  0.000E+00 g(S)=  0.000E+00 dE (1.order)= 0.000E+00
 bond charge predicted
       N       E                     dE             d eps       ncg     rms          rms(c)
DAV:   1    -0.354549252150E+02   -0.29511E-04   -0.26345E-05    48   0.498E-02    0.221E-03
DAV:   2    -0.354549252191E+02   -0.41066E-08   -0.15891E-06    48   0.124E-02    0.127E-03
DAV:   3    -0.354549251910E+02    0.28089E-07   -0.20622E-07    48   0.412E-03    0.790E-04
DAV:   4    -0.354549251790E+02    0.11992E-07   -0.14579E-07    48   0.350E-03    0.254E-04
DAV:   5    -0.354549251831E+02   -0.40823E-08   -0.61256E-08    48   0.162E-03    0.176E-04
DAV:   6    -0.354549251892E+02   -0.60998E-08   -0.41218E-08    48   0.691E-04
  68 F= -.35454925E+02 E0= -.35454925E+02  d E =-.294811E-04
damped:  g(F)=  0.000E+00 g(S)=  0.000E+00 dE (1.order)= 0.000E+00
 bond charge predicted
       N       E                     dE             d eps       ncg     rms          rms(c)
DAV:   1    -0.354549634310E+02   -0.38248E-04   -0.31035E-05    48   0.541E-02    0.233E-03
DAV:   2    -0.354549634485E+02   -0.17533E-07   -0.18465E-06    48   0.133E-02    0.137E-03
DAV:   3    -0.354549634188E+02    0.29695E-07   -0.23612E-07    48   0.444E-03    0.853E-04
DAV:   4    -0.354549634092E+02    0.95722E-08   -0.16325E-07    48   0.374E-03    0.276E-04
DAV:   5    -0.354549634152E+02   -0.59542E-08   -0.65416E-08    48   0.173E-03    0.191E-04
DAV:   6    -0.354549634234E+02   -0.81852E-08   -0.42320E-08    48   0.741E-04
  69 F= -.35454963E+02 E0= -.35454963E+02  d E =-.382341E-04
damped:  g(F)=  0.000E+00 g(S)=  0.000E+00 dE (1.order)= 0.000E+00
 bond charge predicted
       N       E                     dE             d eps       ncg     rms          rms(c)
DAV:   1    -0.354550165376E+02   -0.53122E-04   -0.40416E-05    48   0.618E-02    0.251E-03
DAV:   2    -0.354550165834E+02   -0.45827E-07   -0.23317E-06    48   0.150E-02    0.154E-03
DAV:   3    -0.354550165521E+02    0.31314E-07   -0.29157E-07    48   0.499E-03    0.953E-04
DAV:   4    -0.354550165457E+02    0.63770E-08   -0.19325E-07    48   0.413E-03    0.310E-04
DAV:   5    -0.354550165539E+02   -0.81286E-08   -0.72050E-08    48   0.190E-03    0.215E-04
DAV:   6    -0.354550165640E+02   -0.10113E-07   -0.43760E-08    48   0.815E-04
  70 F= -.35455017E+02 E0= -.35455017E+02  d E =-.531406E-04
damped:  g(F)=  0.000E+00 g(S)=  0.000E+00 dE (1.order)= 0.000E+00
 bond charge predicted
       N       E                     dE             d eps       ncg     rms          rms(c)
DAV:   1    -0.354550889701E+02   -0.72416E-04   -0.49001E-05    48   0.682E-02    0.244E-03
DAV:   2    -0.354550890553E+02   -0.85196E-07   -0.26721E-06    48   0.161E-02    0.160E-03
DAV:   3    -0.354550890308E+02    0.24481E-07   -0.33408E-07    48   0.533E-03    0.993E-04
DAV:   4    -0.354550890324E+02   -0.15908E-08   -0.20160E-07    48   0.417E-03    0.325E-04
DAV:   5    -0.354550890435E+02   -0.11080E-07   -0.73911E-08    48   0.193E-03    0.232E-04
DAV:   6    -0.354550890556E+02   -0.12091E-07   -0.44029E-08    48   0.813E-04
  71 F= -.35455089E+02 E0= -.35455089E+02  d E =-.724916E-04
damped:  g(F)=  0.000E+00 g(S)=  0.000E+00 dE (1.order)= 0.000E+00
 bond charge predicted
       N       E                     dE             d eps       ncg     rms          rms(c)
DAV:   1    -0.354551863800E+02   -0.97336E-04   -0.59578E-05    48   0.757E-02    0.223E-03
DAV:   2    -0.354551865228E+02   -0.14283E-06   -0.29535E-06    48   0.172E-02    0.154E-03
DAV:   3    -0.354551865199E+02    0.29373E-08   -0.38100E-07    48   0.562E-03    0.942E-04
DAV:   4    -0.354551865344E+02   -0.14488E-07   -0.16550E-07    48   0.350E-03    0.323E-04
DAV:   5    -0.354551865489E+02   -0.14564E-07   -0.65199E-08    48   0.159E-03    0.222E-04
DAV:   6    -0.354551865627E+02   -0.13727E-07   -0.41619E-08    48   0.684E-04
  72 F= -.35455187E+02 E0= -.35455187E+02  d E =-.975071E-04
damped:  g(F)=  0.000E+00 g(S)=  0.000E+00 dE (1.order)= 0.000E+00
 bond charge predicted
       N       E                     dE             d eps       ncg     rms          rms(c)
DAV:   1    -0.354553160811E+02   -0.12953E-03   -0.82557E-05    48   0.899E-02    0.229E-03
DAV:   2    -0.354553163158E+02   -0.23474E-06   -0.36484E-06    48   0.196E-02    0.142E-03
DAV:   3    -0.354553163506E+02   -0.34805E-07   -0.48565E-07    48   0.629E-03    0.846E-04
DAV:   4    -0.354553163745E+02   -0.23873E-07   -0.14432E-07    48   0.296E-03    0.395E-04
DAV:   5    -0.354553163908E+02   -0.16278E-07   -0.60802E-08    48   0.142E-03    0.143E-04
DAV:   6    -0.354553164067E+02   -0.15913E-07   -0.41482E-08    48   0.725E-04
  73 F= -.35455316E+02 E0= -.35455316E+02  d E =-.129844E-03
damped:  g(F)=  0.000E+00 g(S)=  0.000E+00 dE (1.order)= 0.000E+00
 bond charge predicted
       N       E                     dE             d eps       ncg     rms          rms(c)
DAV:   1    -0.354554875513E+02   -0.17116E-03   -0.13758E-04    48   0.117E-01    0.290E-03
DAV:   2    -0.354554879343E+02   -0.38301E-06   -0.56815E-06    64   0.247E-02    0.142E-03
DAV:   3    -0.354554880053E+02   -0.70970E-07   -0.72308E-07    48   0.777E-03    0.917E-04
DAV:   4    -0.354554880344E+02   -0.29144E-07   -0.18557E-07    48   0.344E-03    0.472E-04
DAV:   5    -0.354554880454E+02   -0.10987E-07   -0.74170E-08    48   0.174E-03    0.133E-04
DAV:   6    -0.354554880555E+02   -0.10105E-07   -0.45271E-08    48   0.896E-04
  74 F= -.35455488E+02 E0= -.35455488E+02  d E =-.171649E-03
damped:  g(F)=  0.000E+00 g(S)=  0.000E+00 dE (1.order)= 0.000E+00
 bond charge predicted
       N       E                     dE             d eps       ncg     rms          rms(c)
DAV:   1    -0.354557136954E+02   -0.22565E-03   -0.26058E-04    96   0.159E-01    0.414E-03
DAV:   2    -0.354557134884E+02    0.20705E-06   -0.26413E-06    64   0.154E-02    0.186E-03
DAV:   3    -0.354557135190E+02   -0.30617E-07   -0.42292E-07    48   0.587E-03    0.981E-04
DAV:   4    -0.354557135436E+02   -0.24604E-07   -0.16500E-07    48   0.345E-03    0.317E-04
DAV:   5    -0.354557135441E+02   -0.48863E-09   -0.65411E-08    48   0.165E-03    0.202E-04
DAV:   6    -0.354557135561E+02   -0.11987E-07   -0.42586E-08    48   0.873E-04
  75 F= -.35455714E+02 E0= -.35455714E+02  d E =-.225501E-03
damped:  g(F)=  0.000E+00 g(S)=  0.000E+00 dE (1.order)= 0.000E+00
 bond charge predicted
       N       E                     dE             d eps       ncg     rms          rms(c)
DAV:   1    -0.354560088757E+02   -0.29533E-03   -0.46464E-04    96   0.212E-01    0.589E-03
DAV:   2    -0.354560084553E+02    0.42034E-06   -0.49905E-06    64   0.215E-02    0.250E-03
DAV:   3    -0.354560084768E+02   -0.21480E-07   -0.78198E-07    48   0.828E-03    0.131E-03
DAV:   4    -0.354560085108E+02   -0.33978E-07   -0.33598E-07    48   0.531E-03    0.450E-04
DAV:   5    -0.354560085136E+02   -0.28444E-08   -0.99487E-08    48   0.250E-03    0.300E-04
DAV:   6    -0.354560085319E+02   -0.18250E-07   -0.50728E-08    48   0.137E-03
  76 F= -.35456009E+02 E0= -.35456009E+02  d E =-.294976E-03
damped:  g(F)=  0.000E+00 g(S)=  0.000E+00 dE (1.order)= 0.000E+00
 bond charge predicted
       N       E                     dE             d eps       ncg     rms          rms(c)
DAV:   1    -0.354563954546E+02   -0.38694E-03   -0.75852E-04    96   0.271E-01    0.741E-03
DAV:   2    -0.354563948499E+02    0.60465E-06   -0.80331E-06    64   0.272E-02    0.317E-03
DAV:   3    -0.354563948846E+02   -0.34698E-07   -0.12308E-06    48   0.105E-02    0.166E-03
DAV:   4    -0.354563949433E+02   -0.58709E-07   -0.52497E-07    48   0.679E-03    0.555E-04
DAV:   5    -0.354563949507E+02   -0.73996E-08   -0.13866E-07    48   0.319E-03    0.381E-04
DAV:   6    -0.354563949791E+02   -0.28365E-07   -0.58821E-08    48   0.175E-03
  77 F= -.35456395E+02 E0= -.35456395E+02  d E =-.386447E-03
damped:  g(F)=  0.000E+00 g(S)=  0.000E+00 dE (1.order)= 0.000E+00
 bond charge predicted
       N       E                     dE             d eps       ncg     rms          rms(c)
DAV:   1    -0.354569024451E+02   -0.50749E-03   -0.11191E-03    96   0.329E-01    0.821E-03
DAV:   2    -0.354569018466E+02    0.59853E-06   -0.10780E-05    64   0.308E-02    0.370E-03
DAV:   3    -0.354569019702E+02   -0.12358E-06   -0.15812E-06    48   0.116E-02    0.194E-03
DAV:   4    -0.354569020925E+02   -0.12233E-06   -0.57254E-07    48   0.703E-03    0.590E-04
DAV:   5    -0.354569021115E+02   -0.19001E-07   -0.15800E-07    48   0.336E-03    0.398E-04
DAV:   6    -0.354569021613E+02   -0.49735E-07   -0.62283E-08    48   0.177E-03
  78 F= -.35456902E+02 E0= -.35456902E+02  d E =-.507182E-03
damped:  g(F)=  0.000E+00 g(S)=  0.000E+00 dE (1.order)= 0.000E+00
 bond charge predicted
       N       E                     dE             d eps       ncg     rms          rms(c)
DAV:   1    -0.354575618294E+02   -0.65972E-03   -0.15793E-03    96   0.389E-01    0.863E-03
DAV:   2    -0.354575614812E+02    0.34814E-06   -0.14180E-05    64   0.338E-02    0.448E-03
DAV:   3    -0.354575618069E+02   -0.32568E-06   -0.20352E-06    48   0.128E-02    0.215E-03
DAV:   4    -0.354575620160E+02   -0.20907E-06   -0.56314E-07    48   0.653E-03    0.668E-04
DAV:   5    -0.354575620574E+02   -0.41401E-07   -0.17532E-07    48   0.333E-03    0.439E-04
DAV:   6    -0.354575621422E+02   -0.84872E-07   -0.70035E-08    48   0.166E-03
  79 F= -.35457562E+02 E0= -.35457562E+02  d E =-.659981E-03
damped:  g(F)=  0.000E+00 g(S)=  0.000E+00 dE (1.order)= 0.000E+00
 bond charge predicted
       N       E                     dE             d eps       ncg     rms          rms(c)
DAV:   1    -0.354584080293E+02   -0.84597E-03   -0.23188E-03    96   0.471E-01    0.101E-02
DAV:   2    -0.354584079415E+02    0.87782E-07   -0.21734E-05    64   0.407E-02    0.596E-03
DAV:   3    -0.354584085591E+02   -0.61756E-06   -0.34396E-06    48   0.167E-02    0.232E-03
DAV:   4    -0.354584088061E+02   -0.24707E-06   -0.85559E-07    48   0.777E-03    0.106E-03
DAV:   5    -0.354584088730E+02   -0.66845E-07   -0.25717E-07    48   0.402E-03    0.642E-04
DAV:   6    -0.354584089829E+02   -0.10997E-06   -0.99878E-08    48   0.235E-03
  80 F= -.35458409E+02 E0= -.35458409E+02  d E =-.846841E-03
damped:  g(F)=  0.000E+00 g(S)=  0.000E+00 dE (1.order)= 0.000E+00
 bond charge predicted
       N       E                     dE             d eps       ncg     rms          rms(c)
DAV:   1    -0.354594784946E+02   -0.10696E-02   -0.35391E-03    96   0.581E-01    0.125E-02
DAV:   2    -0.354594784674E+02    0.27191E-07   -0.33836E-05    64   0.502E-02    0.752E-03
DAV:   3    -0.354594794415E+02   -0.97409E-06   -0.55572E-06    48   0.213E-02    0.276E-03
DAV:   4    -0.354594797568E+02   -0.31530E-06   -0.13492E-06    48   0.974E-03    0.140E-03
DAV:   5    -0.354594798535E+02   -0.96667E-07   -0.38485E-07    48   0.499E-03    0.816E-04
DAV:   6    -0.354594799874E+02   -0.13396E-06   -0.14522E-07    48   0.309E-03
  81 F= -.35459480E+02 E0= -.35459480E+02  d E =-.107100E-02
damped:  g(F)=  0.000E+00 g(S)=  0.000E+00 dE (1.order)= 0.000E+00
 bond charge predicted
       N       E                     dE             d eps       ncg     rms          rms(c)
DAV:   1    -0.354607845946E+02   -0.13047E-02   -0.52603E-03    96   0.707E-01    0.151E-02
DAV:   2    -0.354607842035E+02    0.39111E-06   -0.46935E-05    64   0.590E-02    0.844E-03
DAV:   3    -0.354607854244E+02   -0.12209E-05   -0.68627E-06    48   0.230E-02    0.341E-03
DAV:   4    -0.354607859723E+02   -0.54792E-06   -0.17188E-06    48   0.109E-02    0.128E-03
DAV:   5    -0.354607860683E+02   -0.96029E-07   -0.52143E-07    48   0.577E-03    0.809E-04
DAV:   6    -0.354607862210E+02   -0.15267E-06   -0.18152E-07    48   0.315E-03
  82 F= -.35460786E+02 E0= -.35460786E+02  d E =-.130623E-02
damped:  g(F)=  0.000E+00 g(S)=  0.000E+00 dE (1.order)= 0.000E+00
 bond charge predicted
       N       E                     dE             d eps       ncg     rms          rms(c)
DAV:   1    -0.354623255083E+02   -0.15394E-02   -0.76305E-03    96   0.850E-01    0.189E-02
DAV:   2    -0.354623237714E+02    0.17369E-05   -0.67722E-05    64   0.722E-02    0.975E-03
DAV:   3    -0.354623249185E+02   -0.11471E-05   -0.96213E-06    48   0.272E-02    0.443E-03
DAV:   4    -0.354623257306E+02   -0.81212E-06   -0.27517E-06    48   0.147E-02    0.115E-03
DAV:   5    -0.354623258380E+02   -0.10744E-06   -0.76964E-07    48   0.725E-03    0.716E-04
DAV:   6    -0.354623259832E+02   -0.14513E-06   -0.23765E-07    48   0.358E-03
  83 F= -.35462326E+02 E0= -.35462326E+02  d E =-.153976E-02
damped:  g(F)=  0.000E+00 g(S)=  0.000E+00 dE (1.order)= 0.000E+00
 bond charge predicted
       N       E                     dE             d eps       ncg     rms          rms(c)
DAV:   1    -0.354640933282E+02   -0.17675E-02   -0.99107E-03    96   0.967E-01    0.218E-02
DAV:   2    -0.354640906419E+02    0.26863E-05   -0.88507E-05    64   0.826E-02    0.114E-02
DAV:   3    -0.354640919966E+02   -0.13548E-05   -0.12910E-05    48   0.315E-02    0.505E-03
DAV:   4    -0.354640930848E+02   -0.10881E-05   -0.38588E-06    48   0.174E-02    0.125E-03
DAV:   5    -0.354640932524E+02   -0.16761E-06   -0.10329E-06    48   0.845E-03    0.752E-04
DAV:   6    -0.354640934507E+02   -0.19825E-06   -0.30963E-07    48   0.414E-03
  84 F= -.35464093E+02 E0= -.35464093E+02  d E =-.176747E-02
damped:  g(F)=  0.000E+00 g(S)=  0.000E+00 dE (1.order)= 0.000E+00
 bond charge predicted
       N       E                     dE             d eps       ncg     rms          rms(c)
DAV:   1    -0.354660258023E+02   -0.19325E-02   -0.10196E-02    96   0.978E-01    0.213E-02
DAV:   2    -0.354660245670E+02    0.12353E-05   -0.86729E-05    80   0.787E-02    0.123E-02
DAV:   3    -0.354660275159E+02   -0.29489E-05   -0.13586E-05    48   0.313E-02    0.380E-03
DAV:   4    -0.354660284662E+02   -0.95036E-06   -0.33475E-06    48   0.144E-02    0.152E-03
DAV:   5    -0.354660287453E+02   -0.27904E-06   -0.10324E-06    48   0.766E-03    0.895E-04
DAV:   6    -0.354660291097E+02   -0.36446E-06   -0.37931E-07    48   0.448E-03
  85 F= -.35466029E+02 E0= -.35466029E+02  d E =-.193566E-02
damped:  g(F)=  0.000E+00 g(S)=  0.000E+00 dE (1.order)= 0.000E+00
 bond charge predicted
       N       E                     dE             d eps       ncg     rms          rms(c)
DAV:   1    -0.354680270825E+02   -0.19983E-02   -0.10010E-02    96   0.968E-01    0.222E-02
DAV:   2    -0.354680259511E+02    0.11313E-05   -0.89710E-05    64   0.803E-02    0.134E-02
DAV:   3    -0.354680296750E+02   -0.37238E-05   -0.15902E-05    64   0.355E-02    0.353E-03
DAV:   4    -0.354680304137E+02   -0.73876E-06   -0.38284E-06    48   0.158E-02    0.194E-03
DAV:   5    -0.354680307481E+02   -0.33435E-06   -0.10966E-06    48   0.824E-03    0.103E-03
DAV:   6    -0.354680311199E+02   -0.37179E-06   -0.47292E-07    48   0.551E-03
  86 F= -.35468031E+02 E0= -.35468031E+02  d E =-.200201E-02
damped:  g(F)=  0.000E+00 g(S)=  0.000E+00 dE (1.order)= 0.000E+00
 bond charge predicted
       N       E                     dE             d eps       ncg     rms          rms(c)
DAV:   1    -0.354699731425E+02   -0.19424E-02   -0.97944E-03    96   0.953E-01    0.228E-02
DAV:   2    -0.354699701127E+02    0.30297E-05   -0.81422E-05    80   0.792E-02    0.132E-02
DAV:   3    -0.354699730997E+02   -0.29870E-05   -0.13094E-05    64   0.312E-02    0.382E-03
DAV:   4    -0.354699739765E+02   -0.87675E-06   -0.32678E-06    48   0.146E-02    0.135E-03
DAV:   5    -0.354699742685E+02   -0.29196E-06   -0.10171E-06    48   0.752E-03    0.598E-04
DAV:   6    -0.354699745307E+02   -0.26227E-06   -0.38097E-07    48   0.407E-03
  87 F= -.35469975E+02 E0= -.35469975E+02  d E =-.194341E-02
damped:  g(F)=  0.000E+00 g(S)=  0.000E+00 dE (1.order)= 0.000E+00
 bond charge predicted
       N       E                     dE             d eps       ncg     rms          rms(c)
DAV:   1    -0.354716741026E+02   -0.16998E-02   -0.79704E-03    96   0.856E-01    0.223E-02
DAV:   2    -0.354716706580E+02    0.34446E-05   -0.68453E-05    64   0.750E-02    0.131E-02
DAV:   3    -0.354716729953E+02   -0.23373E-05   -0.11642E-05    64   0.310E-02    0.402E-03
DAV:   4    -0.354716738375E+02   -0.84224E-06   -0.30568E-06    48   0.150E-02    0.150E-03
DAV:   5    -0.354716741297E+02   -0.29220E-06   -0.85041E-07    48   0.714E-03    0.599E-04
DAV:   6    -0.354716743943E+02   -0.26457E-06   -0.31932E-07    48   0.385E-03
  88 F= -.35471674E+02 E0= -.35471674E+02  d E =-.169986E-02
damped:  g(F)=  0.000E+00 g(S)=  0.000E+00 dE (1.order)= 0.000E+00
 bond charge predicted
       N       E                     dE             d eps       ncg     rms          rms(c)
DAV:   1    -0.354716123648E+02    0.61765E-04   -0.56504E-05    48   0.753E-02    0.224E-03
DAV:   2    -0.354716126937E+02   -0.32895E-06   -0.27364E-06    52   0.171E-02    0.115E-03
DAV:   3    -0.354716128637E+02   -0.17000E-06   -0.29713E-07    48   0.529E-03    0.807E-04
DAV:   4    -0.354716131954E+02   -0.33173E-06   -0.15459E-07    64   0.390E-03    0.234E-04
DAV:   5    -0.354716133270E+02   -0.13159E-06   -0.58832E-08    48   0.177E-03    0.208E-04
DAV:   6    -0.354716134149E+02   -0.87838E-07   -0.30728E-08    48   0.774E-04
  89 F= -.35471613E+02 E0= -.35471613E+02  d E =0.609795E-04
damped:  g(F)=  0.000E+00 g(S)=  0.000E+00 dE (1.order)= 0.000E+00
 bond charge predicted
       N       E                     dE             d eps       ncg     rms          rms(c)
DAV:   1    -0.354715030931E+02    0.11023E-03   -0.16851E-04    92   0.127E-01    0.406E-03
DAV:   2    -0.354715029392E+02    0.15390E-06   -0.29589E-06    80   0.157E-02    0.202E-03
DAV:   3    -0.354715029661E+02   -0.26893E-07   -0.49977E-07    48   0.663E-03    0.125E-03
DAV:   4    -0.354715030692E+02   -0.10318E-06   -0.28626E-07    80   0.493E-03    0.435E-04
DAV:   5    -0.354715031220E+02   -0.52786E-07   -0.74282E-08    48   0.223E-03    0.268E-04
DAV:   6    -0.354715031709E+02   -0.48890E-07   -0.37964E-08    56   0.103E-03
  90 F= -.35471503E+02 E0= -.35471503E+02  d E =0.110244E-03
damped:  g(F)=  0.000E+00 g(S)=  0.000E+00 dE (1.order)= 0.000E+00
 bond charge predicted
       N       E                     dE             d eps       ncg     rms          rms(c)
DAV:   1    -0.354713651996E+02    0.13792E-03   -0.21104E-04    88   0.142E-01    0.410E-03
DAV:   2    -0.354713649301E+02    0.26955E-06   -0.30257E-06    64   0.160E-02    0.199E-03
DAV:   3    -0.354713649052E+02    0.24847E-07   -0.48015E-07    64   0.641E-03    0.117E-03
DAV:   4    -0.354713649208E+02   -0.15543E-07   -0.27493E-07    64   0.478E-03    0.377E-04
DAV:   5    -0.354713649339E+02   -0.13173E-07   -0.80132E-08    48   0.215E-03    0.220E-04
DAV:   6    -0.354713649548E+02   -0.20854E-07   -0.45845E-08    48   0.995E-04
  91 F= -.35471365E+02 E0= -.35471365E+02  d E =0.138216E-03
damped:  g(F)=  0.000E+00 g(S)=  0.000E+00 dE (1.order)= 0.000E+00
 bond charge predicted
       N       E                     dE             d eps       ncg     rms          rms(c)
DAV:   1    -0.354711990054E+02    0.16593E-03   -0.20107E-04    80   0.138E-01    0.316E-03
DAV:   2    -0.354711989278E+02    0.77582E-07   -0.20388E-06    48   0.128E-02    0.159E-03
DAV:   3    -0.354711989667E+02   -0.38878E-07   -0.31779E-07    48   0.486E-03    0.806E-04
DAV:   4    -0.354711990153E+02   -0.48633E-07   -0.11363E-07    48   0.264E-03    0.220E-04
DAV:   5    -0.354711990384E+02   -0.23043E-07   -0.56336E-08    48   0.126E-03    0.122E-04
DAV:   6    -0.354711990645E+02   -0.26095E-07   -0.41630E-08    48   0.599E-04
  92 F= -.35471199E+02 E0= -.35471199E+02  d E =0.165890E-03
damped:  g(F)=  0.000E+00 g(S)=  0.000E+00 dE (1.order)= 0.000E+00
 bond charge predicted
       N       E                     dE             d eps       ncg     rms          rms(c)
DAV:   1    -0.354710044867E+02    0.19455E-03   -0.23850E-04    96   0.151E-01    0.347E-03
DAV:   2    -0.354710045073E+02   -0.20577E-07   -0.27393E-06    48   0.144E-02    0.217E-03
DAV:   3    -0.354710046308E+02   -0.12350E-06   -0.60833E-07    48   0.721E-03    0.769E-04
DAV:   4    -0.354710046812E+02   -0.50349E-07   -0.17270E-07    48   0.330E-03    0.431E-04
DAV:   5    -0.354710047062E+02   -0.25007E-07   -0.63982E-08    48   0.156E-03    0.205E-04
DAV:   6    -0.354710047352E+02   -0.28982E-07   -0.49886E-08    48   0.103E-03
  93 F= -.35471005E+02 E0= -.35471005E+02  d E =0.194329E-03
damped:  g(F)=  0.000E+00 g(S)=  0.000E+00 dE (1.order)= 0.000E+00
 bond charge predicted
       N       E                     dE             d eps       ncg     rms          rms(c)
DAV:   1    -0.354707727034E+02    0.23200E-03   -0.32096E-04    96   0.175E-01    0.459E-03
DAV:   2    -0.354707726844E+02    0.19044E-07   -0.41478E-06    48   0.179E-02    0.286E-03
DAV:   3    -0.354707728026E+02   -0.11828E-06   -0.98352E-07    48   0.951E-03    0.106E-03
DAV:   4    -0.354707728745E+02   -0.71900E-07   -0.29589E-07    48   0.457E-03    0.561E-04
DAV:   5    -0.354707728952E+02   -0.20678E-07   -0.85079E-08    48   0.209E-03    0.271E-04
DAV:   6    -0.354707729198E+02   -0.24611E-07   -0.60933E-08    48   0.140E-03
  94 F= -.35470773E+02 E0= -.35470773E+02  d E =0.231815E-03
damped:  g(F)=  0.000E+00 g(S)=  0.000E+00 dE (1.order)= 0.000E+00
 bond charge predicted
       N       E                     dE             d eps       ncg     rms          rms(c)
DAV:   1    -0.354704706701E+02    0.30223E-03   -0.47359E-04    96   0.212E-01    0.488E-03
DAV:   2    -0.354704706453E+02    0.24804E-07   -0.50283E-06    48   0.197E-02    0.302E-03
DAV:   3    -0.354704708610E+02   -0.21572E-06   -0.10731E-06    48   0.969E-03    0.102E-03
DAV:   4    -0.354704709159E+02   -0.54965E-07   -0.27879E-07    48   0.440E-03    0.581E-04
DAV:   5    -0.354704709387E+02   -0.22755E-07   -0.89238E-08    48   0.206E-03    0.290E-04
DAV:   6    -0.354704709664E+02   -0.27706E-07   -0.61849E-08    48   0.141E-03
  95 F= -.35470471E+02 E0= -.35470471E+02  d E =0.301953E-03
damped:  g(F)=  0.000E+00 g(S)=  0.000E+00 dE (1.order)= 0.000E+00
 bond charge predicted
       N       E                     dE             d eps       ncg     rms          rms(c)
DAV:   1    -0.354701048154E+02    0.36612E-03   -0.73718E-04    96   0.265E-01    0.622E-03
DAV:   2    -0.354701045387E+02    0.27667E-06   -0.70443E-06    64   0.242E-02    0.315E-03
DAV:   3    -0.354701046958E+02   -0.15708E-06   -0.10328E-06    48   0.914E-03    0.151E-03
DAV:   4    -0.354701048168E+02   -0.12107E-06   -0.29670E-07    48   0.477E-03    0.375E-04
DAV:   5    -0.354701048371E+02   -0.20309E-07   -0.10668E-07    48   0.231E-03    0.227E-04
DAV:   6    -0.354701048672E+02   -0.30090E-07   -0.56135E-08    48   0.113E-03
  96 F= -.35470105E+02 E0= -.35470105E+02  d E =0.366099E-03
damped:  g(F)=  0.000E+00 g(S)=  0.000E+00 dE (1.order)= 0.000E+00
 bond charge predicted
       N       E                     dE             d eps       ncg     rms          rms(c)
DAV:   1    -0.354696760244E+02    0.42881E-03   -0.11332E-03    96   0.329E-01    0.883E-03
DAV:   2    -0.354696752100E+02    0.81431E-06   -0.12900E-05    64   0.335E-02    0.418E-03
DAV:   3    -0.354696752593E+02   -0.49246E-07   -0.18875E-06    48   0.128E-02    0.218E-03
DAV:   4    -0.354696753966E+02   -0.13730E-06   -0.75042E-07    80   0.829E-03    0.571E-04
DAV:   5    -0.354696754201E+02   -0.23463E-07   -0.18936E-07    48   0.372E-03    0.355E-04
DAV:   6    -0.354696754596E+02   -0.39591E-07   -0.69578E-08    48   0.178E-03
  97 F= -.35469675E+02 E0= -.35469675E+02  d E =0.429408E-03
damped:  g(F)=  0.000E+00 g(S)=  0.000E+00 dE (1.order)= 0.000E+00
 bond charge predicted
       N       E                     dE             d eps       ncg     rms          rms(c)
DAV:   1    -0.354696749507E+02    0.46937E-06   -0.11117E-06    48   0.103E-02    0.461E-04
DAV:   2    -0.354696750065E+02   -0.55777E-07   -0.96284E-08    48   0.250E-03    0.252E-04
DAV:   3    -0.354696750575E+02   -0.51070E-07   -0.41598E-08    48   0.833E-04    0.154E-04
DAV:   4    -0.354696751543E+02   -0.96731E-07   -0.40711E-08    48   0.686E-04    0.532E-05
DAV:   5    -0.354696751837E+02   -0.29434E-07   -0.36908E-08    48   0.320E-04    0.383E-05
DAV:   6    -0.354696752279E+02   -0.44163E-07   -0.36816E-08    48   0.184E-04
  98 F= -.35469675E+02 E0= -.35469675E+02  d E =0.231783E-06
damped:  g(F)=  0.000E+00 g(S)=  0.000E+00 dE (1.order)= 0.000E+00
 bond charge predicted
[...]
DAV:   6    -0.354734537182E+02   -0.73772E-07   -0.94104E-08    48   0.183E-03
 110 F= -.35473454E+02 E0= -.35473454E+02  d E =-.870476E-03
damped:  g(F)=  0.000E+00 g(S)=  0.000E+00 dE (1.order)= 0.000E+00
 bond charge predicted
       N       E                     dE             d eps       ncg     rms          rms(c)
DAV:   1    -0.354744668647E+02   -0.10132E-02   -0.27576E-03    96   0.505E-01    0.117E-02
DAV:   2    -0.354744662762E+02    0.58858E-06   -0.23889E-05    64   0.421E-02    0.697E-03
DAV:   3    -0.354744672271E+02   -0.95092E-06   -0.38166E-06    48   0.170E-02    0.168E-03
DAV:   4    -0.354744673947E+02   -0.16765E-06   -0.91832E-07    48   0.747E-03    0.789E-04
DAV:   5    -0.354744674698E+02   -0.75084E-07   -0.30106E-07    48   0.399E-03    0.409E-04
DAV:   6    -0.354744675722E+02   -0.10235E-06   -0.12256E-07    48   0.228E-03
 111 F= -.35474468E+02 E0= -.35474468E+02  d E =-.101385E-02
damped:  g(F)=  0.000E+00 g(S)=  0.000E+00 dE (1.order)= 0.000E+00
 bond charge predicted
       N       E                     dE             d eps       ncg     rms          rms(c)
DAV:   1    -0.354755903974E+02   -0.11229E-02   -0.35241E-03    96   0.569E-01    0.135E-02
DAV:   2    -0.354755893391E+02    0.10584E-05   -0.29918E-05    64   0.479E-02    0.788E-03
DAV:   3    -0.354755904606E+02   -0.11215E-05   -0.46756E-06    48   0.188E-02    0.201E-03
DAV:   4    -0.354755907053E+02   -0.24467E-06   -0.11365E-06    48   0.846E-03    0.792E-04
DAV:   5    -0.354755907947E+02   -0.89393E-07   -0.36598E-07    48   0.439E-03    0.373E-04
DAV:   6    -0.354755909006E+02   -0.10596E-06   -0.14562E-07    48   0.240E-03
 112 F= -.35475591E+02 E0= -.35475591E+02  d E =-.112333E-02
damped:  g(F)=  0.000E+00 g(S)=  0.000E+00 dE (1.order)= 0.000E+00
 bond charge predicted
       N       E                     dE             d eps       ncg     rms          rms(c)
DAV:   1    -0.354767633810E+02   -0.11726E-02   -0.40765E-03    96   0.610E-01    0.151E-02
DAV:   2    -0.354767618661E+02    0.15149E-05   -0.35262E-05    64   0.529E-02    0.873E-03
DAV:   3    -0.354767630698E+02   -0.12037E-05   -0.55709E-06    48   0.210E-02    0.245E-03
DAV:   4    -0.354767634178E+02   -0.34797E-06   -0.13840E-06    48   0.970E-03    0.927E-04
DAV:   5    -0.354767635306E+02   -0.11279E-06   -0.41716E-07    48   0.481E-03    0.404E-04
DAV:   6    -0.354767636520E+02   -0.12147E-06   -0.16467E-07    48   0.262E-03
 113 F= -.35476764E+02 E0= -.35476764E+02  d E =-.117275E-02
damped:  g(F)=  0.000E+00 g(S)=  0.000E+00 dE (1.order)= 0.000E+00
 bond charge predicted
       N       E                     dE             d eps       ncg     rms          rms(c)
DAV:   1    -0.354778905984E+02   -0.11271E-02   -0.37636E-03    96   0.584E-01    0.150E-02
DAV:   2    -0.354778895593E+02    0.10391E-05   -0.34049E-05    64   0.518E-02    0.903E-03
DAV:   3    -0.354778911683E+02   -0.16090E-05   -0.57080E-06    64   0.218E-02    0.189E-03
DAV:   4    -0.354778914101E+02   -0.24179E-06   -0.13688E-06    48   0.941E-03    0.986E-04
DAV:   5    -0.354778915670E+02   -0.15687E-06   -0.42625E-07    48   0.493E-03    0.437E-04
DAV:   6    -0.354778917313E+02   -0.16434E-06   -0.17052E-07    48   0.290E-03
 114 F= -.35477892E+02 E0= -.35477892E+02  d E =-.112808E-02
damped:  g(F)=  0.000E+00 g(S)=  0.000E+00 dE (1.order)= 0.000E+00
 bond charge predicted
       N       E                     dE             d eps       ncg     rms          rms(c)
DAV:   1    -0.354788727202E+02   -0.98115E-03   -0.36925E-03    96   0.574E-01    0.151E-02
DAV:   2    -0.354788713944E+02    0.13258E-05   -0.33904E-05    64   0.526E-02    0.897E-03
DAV:   3    -0.354788726402E+02   -0.12458E-05   -0.55289E-06    64   0.217E-02    0.223E-03
DAV:   4    -0.354788729547E+02   -0.31446E-06   -0.13715E-06    48   0.982E-03    0.102E-03
DAV:   5    -0.354788731079E+02   -0.15328E-06   -0.39558E-07    48   0.477E-03    0.374E-04
DAV:   6    -0.354788732585E+02   -0.15059E-06   -0.16220E-07    48   0.265E-03
 115 F= -.35478873E+02 E0= -.35478873E+02  d E =-.981527E-03
damped:  g(F)=  0.000E+00 g(S)=  0.000E+00 dE (1.order)= 0.000E+00
 bond charge predicted
       N       E                     dE             d eps       ncg     rms          rms(c)
DAV:   1    -0.354788512446E+02    0.21863E-04   -0.55430E-06    48   0.234E-02    0.729E-04
DAV:   2    -0.354788513594E+02   -0.11477E-06   -0.31877E-07    48   0.554E-03    0.385E-04
DAV:   3    -0.354788514543E+02   -0.94956E-07   -0.58378E-08    48   0.178E-03    0.275E-04
DAV:   4    -0.354788516328E+02   -0.17849E-06   -0.41019E-08    48   0.126E-03    0.849E-05
DAV:   5    -0.354788517182E+02   -0.85443E-07   -0.30504E-08    48   0.627E-04    0.675E-05
DAV:   6    -0.354788517805E+02   -0.62274E-07   -0.26833E-08    48   0.317E-04
 116 F= -.35478852E+02 E0= -.35478852E+02  d E =0.214780E-04
damped:  g(F)=  0.000E+00 g(S)=  0.000E+00 dE (1.order)= 0.000E+00
 bond charge predicted
       N       E                     dE             d eps       ncg     rms          rms(c)
DAV:   1    -0.354788253935E+02    0.26325E-04   -0.13794E-05    64   0.368E-02    0.124E-03
DAV:   2    -0.354788254533E+02   -0.59818E-07   -0.73998E-07    48   0.867E-03    0.670E-04
DAV:   3    -0.354788254858E+02   -0.32473E-07   -0.10186E-07    48   0.269E-03    0.464E-04
DAV:   4    -0.354788255492E+02   -0.63354E-07   -0.64574E-08    76   0.206E-03    0.137E-04
DAV:   5    -0.354788255809E+02   -0.31774E-07   -0.39512E-08    48   0.970E-04    0.112E-04
DAV:   6    -0.354788256049E+02   -0.23969E-07   -0.31565E-08    48   0.418E-04
 117 F= -.35478826E+02 E0= -.35478826E+02  d E =0.261756E-04
damped:  g(F)=  0.000E+00 g(S)=  0.000E+00 dE (1.order)= 0.000E+00
 bond charge predicted
       N       E                     dE             d eps       ncg     rms          rms(c)
DAV:   1    -0.354788289028E+02   -0.33219E-05   -0.77524E-08    52   0.207E-03    0.601E-05
DAV:   2    -0.354788289168E+02   -0.13961E-07   -0.34012E-08    48   0.482E-04    0.375E-05
DAV:   3    -0.354788289355E+02   -0.18703E-07   -0.32925E-08    48   0.184E-04    0.144E-05
DAV:   4    -0.354788289489E+02   -0.13394E-07   -0.33141E-08    48   0.969E-05    0.904E-06
DAV:   5    -0.354788289604E+02   -0.11514E-07   -0.33439E-08    48   0.529E-05    0.540E-06
DAV:   6    -0.354788289764E+02   -0.16077E-07   -0.34177E-08    48   0.482E-05
 118 F= -.35478829E+02 E0= -.35478829E+02  d E =-.337155E-05
damped:  g(F)=  0.000E+00 g(S)=  0.000E+00 dE (1.order)= 0.000E+00
 bond charge predicted
       N       E                     dE             d eps       ncg     rms          rms(c)
DAV:   1    -0.354788357534E+02   -0.67931E-05   -0.22373E-07    48   0.420E-03    0.106E-04
DAV:   2    -0.354788357561E+02   -0.26403E-08   -0.42233E-08    48   0.937E-04    0.610E-05
DAV:   3    -0.354788357588E+02   -0.27342E-08   -0.35309E-08    48   0.278E-04    0.267E-05
DAV:   4    -0.354788357610E+02   -0.21496E-08   -0.34874E-08    48   0.123E-04    0.981E-06
DAV:   5    -0.354788357624E+02   -0.13929E-08   -0.34942E-08    48   0.614E-05    0.540E-06
DAV:   6    -0.354788357634E+02   -0.10100E-08   -0.35130E-08    48   0.355E-05
 119 F= -.35478836E+02 E0= -.35478836E+02  d E =-.678692E-05
damped:  g(F)=  0.000E+00 g(S)=  0.000E+00 dE (1.order)= 0.000E+00
 bond charge predicted
       N       E                     dE             d eps       ncg     rms          rms(c)
DAV:   1    -0.354788463795E+02   -0.10617E-04   -0.48216E-07    48   0.645E-03    0.164E-04
DAV:   2    -0.354788463803E+02   -0.79876E-09   -0.53912E-08    48   0.144E-03    0.938E-05
DAV:   3    -0.354788463802E+02    0.91404E-10   -0.37326E-08    48   0.424E-04    0.404E-05
DAV:   4    -0.354788463800E+02    0.20918E-09   -0.35792E-08    48   0.187E-04    0.147E-05
DAV:   5    -0.354788463802E+02   -0.16621E-09   -0.35535E-08    48   0.928E-05    0.804E-06
DAV:   6    -0.354788463804E+02   -0.20373E-09   -0.35504E-08    48   0.523E-05
 120 F= -.35478846E+02 E0= -.35478846E+02  d E =-.106170E-04
damped:  g(F)=  0.000E+00 g(S)=  0.000E+00 dE (1.order)= 0.000E+00
 bond charge predicted
       N       E                     dE             d eps       ncg     rms          rms(c)
DAV:   1    -0.354788612380E+02   -0.14858E-04   -0.87418E-07    48   0.884E-03    0.225E-04
DAV:   2    -0.354788612395E+02   -0.15002E-08   -0.70232E-08    48   0.196E-03    0.128E-04
DAV:   3    -0.354788612392E+02    0.29809E-09   -0.39338E-08    48   0.580E-04    0.539E-05
DAV:   4    -0.354788612388E+02    0.39927E-09   -0.36401E-08    48   0.256E-04    0.196E-05
DAV:   5    -0.354788612388E+02    0.18417E-10   -0.35794E-08    48   0.127E-04    0.107E-05
DAV:   6    -0.354788612388E+02    0.29104E-10   -0.35611E-08    48   0.718E-05
 121 F= -.35478861E+02 E0= -.35478861E+02  d E =-.148584E-04
damped:  g(F)=  0.000E+00 g(S)=  0.000E+00 dE (1.order)= 0.000E+00
 bond charge predicted
       N       E                     dE             d eps       ncg     rms          rms(c)
DAV:   1    -0.354788809048E+02   -0.19666E-04   -0.14375E-06    48   0.114E-02    0.292E-04
DAV:   2    -0.354788809075E+02   -0.26625E-08   -0.92941E-08    48   0.253E-03    0.163E-04
DAV:   3    -0.354788809076E+02   -0.13847E-09   -0.41832E-08    48   0.749E-04    0.675E-05
DAV:   4    -0.354788809070E+02    0.58913E-09   -0.36945E-08    48   0.329E-04    0.243E-05
DAV:   5    -0.354788809068E+02    0.16917E-09   -0.35921E-08    48   0.163E-04    0.133E-05
DAV:   6    -0.354788809068E+02    0.66166E-10   -0.35640E-08    48   0.928E-05
 122 F= -.35478881E+02 E0= -.35478881E+02  d E =-.196680E-04
damped:  g(F)=  0.000E+00 g(S)=  0.000E+00 dE (1.order)= 0.000E+00
 bond charge predicted
       N       E                     dE             d eps       ncg     rms          rms(c)
DAV:   1    -0.354789061829E+02   -0.25276E-04   -0.22392E-06    48   0.144E-02    0.366E-04
DAV:   2    -0.354789061877E+02   -0.48328E-08   -0.12461E-07    48   0.316E-03    0.202E-04
DAV:   3    -0.354789061881E+02   -0.42246E-09   -0.45223E-08    48   0.936E-04    0.822E-05
DAV:   4    -0.354789061875E+02    0.63346E-09   -0.37671E-08    48   0.410E-04    0.293E-05
DAV:   5    -0.354789061874E+02    0.15370E-09   -0.36097E-08    48   0.204E-04    0.161E-05
DAV:   6    -0.354789061873E+02    0.88448E-10   -0.35635E-08    48   0.116E-04
 123 F= -.35478906E+02 E0= -.35478906E+02  d E =-.252805E-04
damped:  g(F)=  0.000E+00 g(S)=  0.000E+00 dE (1.order)= 0.000E+00
 bond charge predicted
       N       E                     dE             d eps       ncg     rms          rms(c)
DAV:   1    -0.354789421024E+02   -0.35915E-04   -0.42479E-06    48   0.199E-02    0.507E-04
DAV:   2    -0.354789421121E+02   -0.96584E-08   -0.20315E-07    48   0.436E-03    0.277E-04
DAV:   3    -0.354789421135E+02   -0.14215E-08   -0.53765E-08    48   0.129E-03    0.111E-04
DAV:   4    -0.354789421131E+02    0.40291E-09   -0.39555E-08    48   0.561E-04    0.392E-05
DAV:   5    -0.354789421130E+02    0.10994E-09   -0.36527E-08    48   0.280E-04    0.216E-05
DAV:   6    -0.354789421128E+02    0.19531E-09   -0.35686E-08    48   0.159E-04
 124 F= -.35478942E+02 E0= -.35478942E+02  d E =-.359255E-04
damped:  g(F)=  0.000E+00 g(S)=  0.000E+00 dE (1.order)= 0.000E+00
 bond charge predicted
       N       E                     dE             d eps       ncg     rms          rms(c)
DAV:   1    -0.354789935095E+02   -0.51397E-04   -0.82040E-06    48   0.277E-02    0.708E-04
DAV:   2    -0.354789935285E+02   -0.18988E-07   -0.35585E-07    48   0.604E-03    0.383E-04
DAV:   3    -0.354789935327E+02   -0.41434E-08   -0.70438E-08    48   0.179E-03    0.151E-04
DAV:   4    -0.354789935325E+02    0.20555E-09   -0.43285E-08    48   0.775E-04    0.537E-05
DAV:   5    -0.354789935322E+02    0.29422E-09   -0.37487E-08    48   0.386E-04    0.293E-05
DAV:   6    -0.354789935321E+02    0.40700E-10   -0.35819E-08    48   0.220E-04
 125 F= -.35478994E+02 E0= -.35478994E+02  d E =-.514194E-04
damped:  g(F)=  0.000E+00 g(S)=  0.000E+00 dE (1.order)= 0.000E+00
 bond charge predicted
       N       E                     dE             d eps       ncg     rms          rms(c)
DAV:   1    -0.354790676956E+02   -0.74163E-04   -0.16217E-05    48   0.391E-02    0.997E-04
DAV:   2    -0.354790677337E+02   -0.38056E-07   -0.66099E-07    48   0.847E-03    0.536E-04
DAV:   3    -0.354790677428E+02   -0.91020E-08   -0.10382E-07    48   0.250E-03    0.210E-04
DAV:   4    -0.354790677436E+02   -0.80922E-09   -0.50887E-08    48   0.108E-03    0.754E-05
DAV:   5    -0.354790677431E+02    0.41678E-09   -0.39584E-08    48   0.539E-04    0.403E-05
DAV:   6    -0.354790677432E+02   -0.15689E-10   -0.36215E-08    48   0.307E-04
 126 F= -.35479068E+02 E0= -.35479068E+02  d E =-.742110E-04
damped:  g(F)=  0.000E+00 g(S)=  0.000E+00 dE (1.order)= 0.000E+00
 bond charge predicted
       N       E                     dE             d eps       ncg     rms          rms(c)
DAV:   1    -0.354791757459E+02   -0.10800E-03   -0.32973E-05    48   0.558E-02    0.142E-03
DAV:   2    -0.354791758227E+02   -0.76838E-07   -0.12919E-06    48   0.120E-02    0.761E-04
DAV:   3    -0.354791758436E+02   -0.20821E-07   -0.17304E-07    48   0.355E-03    0.296E-04
DAV:   4    -0.354791758465E+02   -0.29388E-08   -0.66766E-08    48   0.152E-03    0.108E-04
DAV:   5    -0.354791758461E+02    0.34674E-09   -0.44041E-08    48   0.761E-04    0.564E-05
DAV:   6    -0.354791758463E+02   -0.13210E-09   -0.37265E-08    48   0.433E-04
 127 F= -.35479176E+02 E0= -.35479176E+02  d E =-.108103E-03
damped:  g(F)=  0.000E+00 g(S)=  0.000E+00 dE (1.order)= 0.000E+00
 bond charge predicted
       N       E                     dE             d eps       ncg     rms          rms(c)
DAV:   1    -0.354793342679E+02   -0.15842E-03   -0.68848E-05    48   0.808E-02    0.205E-03
DAV:   2    -0.354793344280E+02   -0.16008E-06   -0.26307E-06    48   0.173E-02    0.109E-03
DAV:   3    -0.354793344740E+02   -0.46055E-07   -0.32033E-07    48   0.511E-03    0.424E-04
DAV:   4    -0.354793344822E+02   -0.81895E-08   -0.10105E-07    48   0.217E-03    0.158E-04
DAV:   5    -0.354793344824E+02   -0.14506E-09   -0.54160E-08    48   0.109E-03    0.799E-05
DAV:   6    -0.354793344834E+02   -0.10748E-08   -0.40170E-08    48   0.619E-04
 128 F= -.35479334E+02 E0= -.35479334E+02  d E =-.158637E-03
damped:  g(F)=  0.000E+00 g(S)=  0.000E+00 dE (1.order)= 0.000E+00
 bond charge predicted
       N       E                     dE             d eps       ncg     rms          rms(c)
DAV:   1    -0.354795683431E+02   -0.23386E-03   -0.15169E-04    96   0.118E-01    0.283E-03
DAV:   2    -0.354795682575E+02    0.85561E-07   -0.12893E-06    48   0.978E-03    0.164E-03
DAV:   3    -0.354795683085E+02   -0.50959E-07   -0.23380E-07    48   0.392E-03    0.402E-04
DAV:   4    -0.354795683135E+02   -0.50472E-08   -0.78625E-08    48   0.176E-03    0.187E-04
DAV:   5    -0.354795683142E+02   -0.64915E-09   -0.46245E-08    48   0.922E-04    0.104E-04
DAV:   6    -0.354795683183E+02   -0.41759E-08   -0.36730E-08    48   0.506E-04
 129 F= -.35479568E+02 E0= -.35479568E+02  d E =-.233835E-03
damped:  g(F)=  0.000E+00 g(S)=  0.000E+00 dE (1.order)= 0.000E+00
 bond charge predicted
       N       E                     dE             d eps       ncg     rms          rms(c)
DAV:   1    -0.354799130877E+02   -0.34477E-03   -0.32687E-04    96   0.174E-01    0.411E-03
DAV:   2    -0.354799129227E+02    0.16498E-06   -0.26914E-06    64   0.142E-02    0.239E-03
DAV:   3    -0.354799130356E+02   -0.11290E-06   -0.45221E-07    48   0.565E-03    0.591E-04
DAV:   4    -0.354799130500E+02   -0.14429E-07   -0.12811E-07    48   0.252E-03    0.272E-04
DAV:   5    -0.354799130532E+02   -0.31404E-08   -0.60650E-08    48   0.132E-03    0.152E-04
DAV:   6    -0.354799130624E+02   -0.92152E-08   -0.40894E-08    48   0.720E-04
 130 F= -.35479913E+02 E0= -.35479913E+02  d E =-.344744E-03
damped:  g(F)=  0.000E+00 g(S)=  0.000E+00 dE (1.order)= 0.000E+00
 bond charge predicted
       N       E                     dE             d eps       ncg     rms          rms(c)
DAV:   1    -0.354804186285E+02   -0.50558E-03   -0.70458E-04    96   0.255E-01    0.598E-03
DAV:   2    -0.354804183165E+02    0.31205E-06   -0.57250E-06    64   0.206E-02    0.346E-03
DAV:   3    -0.354804185567E+02   -0.24023E-06   -0.92531E-07    48   0.819E-03    0.880E-04
DAV:   4    -0.354804185935E+02   -0.36821E-07   -0.23818E-07    48   0.367E-03    0.392E-04
DAV:   5    -0.354804186024E+02   -0.88792E-08   -0.93659E-08    48   0.192E-03    0.221E-04
DAV:   6    -0.354804186207E+02   -0.18247E-07   -0.51198E-08    48   0.105E-03
 131 F= -.35480419E+02 E0= -.35480419E+02  d E =-.505558E-03
damped:  g(F)=  0.000E+00 g(S)=  0.000E+00 dE (1.order)= 0.000E+00
 bond charge predicted
       N       E                     dE             d eps       ncg     rms          rms(c)
DAV:   1    -0.354811164759E+02   -0.69787E-03   -0.13585E-03    96   0.354E-01    0.827E-03
DAV:   2    -0.354811159103E+02    0.56553E-06   -0.10980E-05    64   0.286E-02    0.475E-03
DAV:   3    -0.354811163737E+02   -0.46337E-06   -0.17353E-06    48   0.113E-02    0.126E-03
DAV:   4    -0.354811164579E+02   -0.84159E-07   -0.42976E-07    48   0.510E-03    0.521E-04
DAV:   5    -0.354811164792E+02   -0.21330E-07   -0.15075E-07    48   0.266E-03    0.291E-04
DAV:   6    -0.354811165142E+02   -0.35045E-07   -0.69465E-08    48   0.144E-03
 132 F= -.35481117E+02 E0= -.35481117E+02  d E =-.697894E-03
damped:  g(F)=  0.000E+00 g(S)=  0.000E+00 dE (1.order)= 0.000E+00
 bond charge predicted
       N       E                     dE             d eps       ncg     rms          rms(c)
DAV:   1    -0.354820402845E+02   -0.92381E-03   -0.24435E-03    96   0.475E-01    0.111E-02
DAV:   2    -0.354820392903E+02    0.99426E-06   -0.19862E-05    64   0.386E-02    0.632E-03
DAV:   3    -0.354820400989E+02   -0.80860E-06   -0.30925E-06    48   0.151E-02    0.177E-03
DAV:   4    -0.354820402709E+02   -0.17203E-06   -0.75924E-07    48   0.693E-03    0.663E-04
DAV:   5    -0.354820403133E+02   -0.42377E-07   -0.24668E-07    48   0.358E-03    0.357E-04
DAV:   6    -0.354820403783E+02   -0.65051E-07   -0.10136E-07    48   0.193E-03
 133 F= -.35482040E+02 E0= -.35482040E+02  d E =-.923864E-03
damped:  g(F)=  0.000E+00 g(S)=  0.000E+00 dE (1.order)= 0.000E+00
 bond charge predicted
       N       E                     dE             d eps       ncg     rms          rms(c)
DAV:   1    -0.354832299191E+02   -0.11896E-02   -0.41097E-03    96   0.615E-01    0.143E-02
DAV:   2    -0.354832283593E+02    0.15598E-05   -0.33686E-05    64   0.502E-02    0.822E-03
DAV:   3    -0.354832297646E+02   -0.14053E-05   -0.52257E-06    52   0.197E-02    0.226E-03
DAV:   4    -0.354832300730E+02   -0.30838E-06   -0.12677E-06    48   0.897E-03    0.851E-04
DAV:   5    -0.354832301544E+02   -0.81381E-07   -0.40081E-07    48   0.464E-03    0.446E-04
DAV:   6    -0.354832302580E+02   -0.10368E-06   -0.15402E-07    48   0.251E-03
 134 F= -.35483230E+02 E0= -.35483230E+02  d E =-.118988E-02
damped:  g(F)=  0.000E+00 g(S)=  0.000E+00 dE (1.order)= 0.000E+00
 bond charge predicted
       N       E                     dE             d eps       ncg     rms          rms(c)
DAV:   1    -0.354847276792E+02   -0.14975E-02   -0.65140E-03    96   0.774E-01    0.180E-02
DAV:   2    -0.354847255989E+02    0.20803E-05   -0.53846E-05    64   0.632E-02    0.105E-02
DAV:   3    -0.354847279712E+02   -0.23723E-05   -0.84113E-06    64   0.250E-02    0.265E-03
DAV:   4    -0.354847284268E+02   -0.45560E-06   -0.20035E-06    48   0.111E-02    0.110E-03
DAV:   5    -0.354847285749E+02   -0.14811E-06   -0.63591E-07    48   0.586E-03    0.562E-04
DAV:   6    -0.354847287393E+02   -0.16434E-06   -0.23538E-07    48   0.322E-03
 135 F= -.35484729E+02 E0= -.35484729E+02  d E =-.149848E-02
damped:  g(F)=  0.000E+00 g(S)=  0.000E+00 dE (1.order)= 0.000E+00
 reached required accuracy - stopping structural energy minimisation
