unknown system                          
           1
    30.000000    0.000000    0.000000
     0.000000   30.000000    0.000000
     0.000000    0.000000   30.000000
   H    C    N 
   3   2   1
Direct configuration=     1
   0.47802043  0.46450673  0.50207959
   0.46876671  0.51896960  0.47952545
   0.47431240  0.51176763  0.53880856
   0.48540600  0.50013498  0.50615076
   0.56115550  0.49916218  0.47358139
   0.53234902  0.50547782  0.49985420
Direct configuration=     2
   0.47796712  0.46451071  0.50210460
   0.46871630  0.51896818  0.47955184
   0.47432505  0.51178117  0.53883552
   0.48538030  0.50013248  0.50615590
   0.56132570  0.49922250  0.47364895
   0.53229558  0.50540390  0.49970315
Direct configuration=     3
   0.47788242  0.46451567  0.50214469
   0.46863536  0.51896737  0.47959292
   0.47434895  0.51180149  0.53887401
   0.48534638  0.50012675  0.50615877
   0.56158136  0.49931624  0.47375698
   0.53221559  0.50529143  0.49947258
Direct configuration=     4
   0.47776101  0.46452003  0.50220229
   0.46851812  0.51896814  0.47965020
   0.47439148  0.51182805  0.53891998
   0.48530714  0.50011649  0.50615505
   0.56192293  0.49944684  0.47391193
   0.53210939  0.50513941  0.49916050
Direct configuration=     5
   0.47759636  0.46452234  0.50227982
   0.46835776  0.51897142  0.47972541
   0.47446328  0.51186025  0.53896708
   0.48526304  0.50009991  0.50613934
   0.56234936  0.49961696  0.47412155
   0.53198026  0.50494806  0.49876676
Direct configuration=     6
   0.47738183  0.46452120  0.50237906
   0.46814748  0.51897730  0.47981994
   0.47457811  0.51189734  0.53900804
   0.48521287  0.50007385  0.50610398
   0.56285447  0.49982984  0.47439663
   0.53183530  0.50471941  0.49829230
Direct configuration=     7
   0.47707905  0.46451409  0.50251457
   0.46784905  0.51898646  0.47994695
   0.47477542  0.51194360  0.53903665
   0.48515069  0.50003113  0.50603411
   0.56349515  0.50011599  0.47478432
   0.53166071  0.50442767  0.49768336
Direct configuration=     8
   0.47666418  0.46449629  0.50268998
   0.46743799  0.51899742  0.48010826
   0.47510631  0.51199997  0.53903548
   0.48508012  0.49996278  0.50590872
   0.56425080  0.50049069  0.47532773
   0.53147066  0.50407180  0.49692979
Direct configuration=     9
   0.47611958  0.46446295  0.50290106
   0.46689666  0.51900389  0.48029965
   0.47564484  0.51206715  0.53897921
   0.48501805  0.49985877  0.50569936
   0.56510251  0.50095592  0.47604239
   0.53122841  0.50367027  0.49607828
Direct configuration=    10
   0.47545236  0.46442040  0.50313410
   0.46623379  0.51899428  0.48051491
   0.47643820  0.51214653  0.53885319
   0.48492527  0.49971869  0.50541131
   0.56586133  0.50151589  0.47702981
   0.53109910  0.50322317  0.49505665
Direct configuration=    11
   0.47545579  0.46442009  0.50312610
   0.46623695  0.51898996  0.48050870
   0.47646565  0.51214645  0.53884300
   0.48494123  0.49971699  0.50540038
   0.56592403  0.50150926  0.47698693
   0.53098641  0.50323620  0.49513485
Direct configuration=    12
   0.47545414  0.46442006  0.50312533
   0.46623529  0.51898903  0.48050832
   0.47647310  0.51214679  0.53884099
   0.48493978  0.49971618  0.50539888
   0.56591876  0.50151087  0.47699260
   0.53098898  0.50323602  0.49513384
Direct configuration=    13
   0.47545126  0.46441995  0.50312356
   0.46623239  0.51898714  0.48050734
   0.47648770  0.51214737  0.53883698
   0.48493723  0.49971461  0.50539587
   0.56590862  0.50151367  0.47700268
   0.53099287  0.50323621  0.49513353
Direct configuration=    14
   0.47544733  0.46441971  0.50312067
   0.46622837  0.51898431  0.48050564
   0.47650940  0.51214822  0.53883099
   0.48493402  0.49971230  0.50539126
   0.56589556  0.50151739  0.47701574
   0.53099537  0.50323701  0.49513566
Direct configuration=    15
   0.47544257  0.46441923  0.50311656
   0.46622349  0.51898061  0.48050304
   0.47653779  0.51214932  0.53882322
   0.48493072  0.49970934  0.50538505
   0.56588205  0.50152169  0.47702994
   0.53099344  0.50323876  0.49514215
Direct configuration=    16
   0.47543725  0.46441841  0.50311121
   0.46621796  0.51897615  0.48049945
   0.47657196  0.51215069  0.53881406
   0.48492767  0.49970584  0.50537739
   0.56587001  0.50152623  0.47704376
   0.53098520  0.50324162  0.49515410
Direct configuration=    17
   0.47543132  0.46441714  0.50310471
   0.46621172  0.51897107  0.48049487
   0.47661123  0.51215239  0.53880395
   0.48492482  0.49970187  0.50536851
   0.56586039  0.50153108  0.47705691
   0.53097058  0.50324540  0.49517101
Direct configuration=    18
   0.47542358  0.46441503  0.50309635
   0.46620350  0.51896481  0.48048870
   0.47666040  0.51215485  0.53879218
   0.48492124  0.49969692  0.50535755
   0.56585214  0.50153728  0.47707203
   0.53094920  0.50325005  0.49519314
Direct configuration=    19
   0.47541262  0.46441164  0.50308609
   0.46619182  0.51895727  0.48048082
   0.47672149  0.51215857  0.53877931
   0.48491524  0.49969070  0.50534455
   0.56584325  0.50154631  0.47709325
   0.53092563  0.50325445  0.49521594
Direct configuration=    20
   0.47539706  0.46440666  0.50307444
   0.46617526  0.51894866  0.48047157
   0.47679421  0.51216403  0.53876661
   0.48490508  0.49968304  0.50533001
   0.56583154  0.50155973  0.47712508
   0.53090692  0.50325683  0.49523224
Direct configuration=    21
   0.47537559  0.46439972  0.50306190
   0.46615251  0.51893915  0.48046129
   0.47687779  0.51217169  0.53875563
   0.48488995  0.49967397  0.50531430
   0.56581934  0.50157898  0.47716986
   0.53089487  0.50325544  0.49523698
Direct configuration=    22
   0.47534684  0.46439039  0.50304890
   0.46612218  0.51892897  0.48045030
   0.47697108  0.51218217  0.53874849
   0.48487088  0.49966350  0.50529735
   0.56581838  0.50160537  0.47722564
   0.53088070  0.50324856  0.49522927
Direct configuration=    23
   0.47531013  0.46437890  0.50303642
   0.46608371  0.51891841  0.48043971
   0.47707071  0.51219550  0.53874674
   0.48485065  0.49965205  0.50527911
   0.56584264  0.50163957  0.47728819
   0.53085222  0.50323452  0.49520979
Direct configuration=    24
   0.47526258  0.46436610  0.50302671
   0.46603458  0.51890769  0.48043215
   0.47717428  0.51221171  0.53875139
   0.48482942  0.49963983  0.50526006
   0.56589575  0.50168475  0.47736359
   0.53081344  0.50320887  0.49516607
Direct configuration=    25
   0.47519977  0.46435369  0.50302325
   0.46597094  0.51889687  0.48043190
   0.47728072  0.51223051  0.53876200
   0.48480518  0.49962658  0.50524044
   0.56596925  0.50174602  0.47746748
   0.53078420  0.50316529  0.49507489
Direct configuration=    26
   0.47512312  0.46434461  0.50302736
   0.46589495  0.51888560  0.48044214
   0.47738426  0.51224946  0.53877550
   0.48478218  0.49961181  0.50521965
   0.56605425  0.50182342  0.47760191
   0.53077130  0.50310406  0.49493340
Direct configuration=    27
   0.47504269  0.46434345  0.50303803
   0.46581778  0.51887273  0.48046571
   0.47747368  0.51226194  0.53878284
   0.48477939  0.49959740  0.50519474
   0.56617706  0.50190842  0.47773244
   0.53071947  0.50303501  0.49478621
Direct configuration=    28
   0.47504320  0.46434472  0.50303876
   0.46581865  0.51887252  0.48046749
   0.47747162  0.51226042  0.53878070
   0.48478049  0.49959741  0.50519450
   0.56617267  0.50190866  0.47773382
   0.53072343  0.50303523  0.49478469
Direct configuration=    29
   0.47504469  0.46434717  0.50303995
   0.46582083  0.51887211  0.48047082
   0.47746719  0.51225728  0.53877642
   0.48478308  0.49959744  0.50519398
   0.56616480  0.50190871  0.47773506
   0.53072947  0.50303626  0.49478373
Direct configuration=    30
   0.47504779  0.46435055  0.50304118
   0.46582483  0.51887158  0.48047517
   0.47746011  0.51225248  0.53877019
   0.48478762  0.49959754  0.50519318
   0.56615537  0.50190794  0.47773376
   0.53073435  0.50303888  0.49478648
Direct configuration=    31
   0.47505295  0.46435446  0.50304200
   0.46583096  0.51887106  0.48047987
   0.47745038  0.51224621  0.53876249
   0.48479411  0.49959770  0.50519217
   0.56614574  0.50190582  0.47772809
   0.53073592  0.50304370  0.49479534
Direct configuration=    32
   0.47506054  0.46435850  0.50304201
   0.46583945  0.51887069  0.48048431
   0.47743797  0.51223860  0.53875374
   0.48480216  0.49959790  0.50519113
   0.56613541  0.50190199  0.47771733
   0.53073453  0.50305128  0.49481144
Direct configuration=    33
   0.47507087  0.46436224  0.50304081
   0.46585046  0.51887060  0.48048791
   0.47742281  0.51222975  0.53874437
   0.48481095  0.49959810  0.50519033
   0.56612198  0.50189621  0.47770177
   0.53073299  0.50306207  0.49483478
Direct configuration=    34
   0.47508580  0.46436551  0.50303767
   0.46586574  0.51887099  0.48049021
   0.47740279  0.51221867  0.53873374
   0.48482039  0.49959825  0.50519013
   0.56609976  0.50188729  0.47767977
   0.53073558  0.50307825  0.49486844
Direct configuration=    35
   0.47510696  0.46436753  0.50303144
   0.46588665  0.51887213  0.48048984
   0.47737668  0.51220512  0.53872226
   0.48482951  0.49959842  0.50519117
   0.56606347  0.50187396  0.47764994
   0.53074680  0.50310181  0.49491532
Direct configuration=    36
   0.47513710  0.46436721  0.50302035
   0.46591563  0.51887429  0.48048454
   0.47734257  0.51218886  0.53871045
   0.48483808  0.49959888  0.50519419
   0.56600979  0.50185377  0.47760734
   0.53076689  0.50313596  0.49498310
Direct configuration=    37
   0.47518046  0.46436322  0.50300179
   0.46595657  0.51887758  0.48047085
   0.47729761  0.51216973  0.53869888
   0.48484710  0.49960035  0.50519999
   0.56593775  0.50182266  0.47754275
   0.53079057  0.50318542  0.49508571
Direct configuration=    38
   0.47524234  0.46435430  0.50297267
   0.46601467  0.51888175  0.48044411
   0.47723770  0.51214805  0.53868820
   0.48485738  0.49960388  0.50520992
   0.56584214  0.50177514  0.47744648
   0.53081584  0.50325586  0.49523859
Direct configuration=    39
   0.47532945  0.46433964  0.50292927
   0.46609663  0.51888594  0.48039894
   0.47715582  0.51212429  0.53867992
   0.48486723  0.49961066  0.50522707
   0.56570439  0.50170489  0.47731291
   0.53085654  0.50335355  0.49545185
Direct configuration=    40
   0.47545206  0.46431927  0.50286587
   0.46621267  0.51888822  0.48032979
   0.47703909  0.51209738  0.53867661
   0.48487628  0.49962260  0.50525629
   0.56550159  0.50160390  0.47713282
   0.53092837  0.50348760  0.49573860
Direct configuration=    41
   0.47562733  0.46429517  0.50277398
   0.46638032  0.51888474  0.48022964
   0.47686781  0.51206440  0.53867949
   0.48489275  0.49964305  0.50530278
   0.56522276  0.50145765  0.47687791
   0.53101910  0.50367397  0.49613617
Direct configuration=    42
   0.47587698  0.46427303  0.50264484
   0.46662196  0.51887038  0.48009310
   0.47661345  0.51202131  0.53868953
   0.48492313  0.49967584  0.50537426
   0.56482838  0.50125167  0.47652793
   0.53114617  0.50392676  0.49667032
Direct configuration=    43
   0.47622589  0.46426188  0.50247008
   0.46696306  0.51883940  0.47991683
   0.47623913  0.51196200  0.53870408
   0.48497212  0.49972651  0.50548128
   0.56426056  0.50097107  0.47607261
   0.53134931  0.50425811  0.49735510
Direct configuration=    44
   0.47668334  0.46427774  0.50225871
   0.46741321  0.51878885  0.47971727
   0.47569740  0.51188218  0.53872864
   0.48505643  0.49980315  0.50563437
   0.56362521  0.50062125  0.47547429
   0.53153446  0.50464581  0.49818669
Direct configuration=    45
   0.47668672  0.46428258  0.50226219
   0.46741654  0.51878835  0.47972249
   0.47567696  0.51188078  0.53873235
   0.48505004  0.49980505  0.50564195
   0.56359010  0.50063063  0.47550942
   0.53158971  0.50463159  0.49813157
Direct configuration=    46
   0.47670392  0.46429171  0.50226420
   0.46743345  0.51878671  0.47972769
   0.47563316  0.51187585  0.53873548
   0.48505158  0.49980967  0.50565333
   0.56353985  0.50063428  0.47553378
   0.53164810  0.50462076  0.49808549
Direct configuration=    47
   0.47670862  0.46429220  0.50226286
   0.46743805  0.51878649  0.47972646
   0.47562875  0.51187479  0.53873439
   0.48505584  0.49981031  0.50565323
   0.56354117  0.50062974  0.47552156
   0.53163763  0.50462545  0.49810147
Direct configuration=    48
   0.47671782  0.46429322  0.50226033
   0.46744706  0.51878606  0.47972415
   0.47561978  0.51187269  0.53873234
   0.48506369  0.49981159  0.50565329
   0.56354188  0.50062126  0.47549936
   0.53161983  0.50463415  0.49813051
Direct configuration=    49
   0.47673136  0.46429488  0.50225686
   0.46746030  0.51878549  0.47972104
   0.47560567  0.51186957  0.53872958
   0.48507393  0.49981352  0.50565404
   0.56353827  0.50060983  0.47547100
   0.53160053  0.50464569  0.49816745
Direct configuration=    50
   0.47674881  0.46429722  0.50225275
   0.46747735  0.51878482  0.47971742
   0.47558606  0.51186545  0.53872633
   0.48508468  0.49981605  0.50565613
   0.56352496  0.50059680  0.47544195
   0.53158821  0.50465863  0.49820540
Direct configuration=    51
   0.47676887  0.46430010  0.50224841
   0.46749693  0.51878413  0.47971365
   0.47556185  0.51186062  0.53872295
   0.48509411  0.49981903  0.50565990
   0.56349990  0.50058369  0.47541688
   0.53158840  0.50467140  0.49823818
Direct configuration=    52
   0.47679077  0.46430336  0.50224406
   0.46751827  0.51878350  0.47970989
   0.47553384  0.51185527  0.53871966
   0.48510145  0.49982234  0.50566542
   0.56346392  0.50057114  0.47539701
   0.53160182  0.50468336  0.49826394
Direct configuration=    53
   0.47681710  0.46430729  0.50223918
   0.46754389  0.51878290  0.47970560
   0.47549861  0.51184879  0.53871618
   0.48510722  0.49982640  0.50567357
   0.56341390  0.50055762  0.47537936
   0.53162935  0.50469597  0.49828608
Direct configuration=    54
   0.47684996  0.46431187  0.50223326
   0.46757581  0.51878242  0.47970012
   0.47545363  0.51184079  0.53871245
   0.48511224  0.49983161  0.50568499
   0.56335225  0.50054124  0.47535799
   0.53166617  0.50471104  0.49831116
Direct configuration=    55
   0.47689074  0.46431685  0.50222577
   0.46761538  0.51878217  0.47969269
   0.47539816  0.51183121  0.53870854
   0.48511902  0.49983821  0.50569931
   0.56328959  0.50051920  0.47532171
   0.53169717  0.50473134  0.49835195
Direct configuration=    56
   0.47693971  0.46432186  0.50221644
   0.46766284  0.51878226  0.47968281
   0.47533227  0.51182021  0.53870479
   0.48512936  0.49984626  0.50571609
   0.56323425  0.50048999  0.47526346
   0.53171165  0.50475839  0.49841637
Direct configuration=    57
   0.47699741  0.46432658  0.50220546
   0.46771869  0.51878300  0.47967027
   0.47525366  0.51180799  0.53870253
   0.48514267  0.49985580  0.50573587
   0.56318625  0.50045383  0.47518339
   0.53171139  0.50479177  0.49850244
Direct configuration=    58
   0.47706287  0.46433054  0.50219460
   0.46778189  0.51878516  0.47965604
   0.47515618  0.51179514  0.53870556
   0.48515255  0.49986667  0.50576125
   0.56312610  0.50041698  0.47510386
   0.53173047  0.50482449  0.49857865
Direct configuration=    59
   0.47706318  0.46433044  0.50219485
   0.46778217  0.51878532  0.47965609
   0.47515443  0.51179517  0.53870631
   0.48515181  0.49986672  0.50576179
   0.56312376  0.50041768  0.47510621
   0.53173472  0.50482364  0.49857472
Direct configuration=    60
   0.47706384  0.46433024  0.50219533
   0.46778278  0.51878565  0.47965616
   0.47515092  0.51179523  0.53870776
   0.48515048  0.49986685  0.50576287
   0.56311962  0.50041894  0.47511035
   0.53174242  0.50482206  0.49856749
Direct configuration=    61
   0.47706502  0.46432994  0.50219600
   0.46778388  0.51878615  0.47965620
   0.47514552  0.51179528  0.53870993
   0.48514884  0.49986708  0.50576447
   0.56311470  0.50042051  0.47511519
   0.53175209  0.50482001  0.49855817
Direct configuration=    62
   0.47706707  0.46432951  0.50219684
   0.46778580  0.51878685  0.47965613
   0.47513779  0.51179530  0.53871287
   0.48514737  0.49986748  0.50576661
   0.56311072  0.50042194  0.47511883
   0.53176131  0.50481788  0.49854869
Direct configuration=    63
   0.47706723  0.46432950  0.50219686
   0.46778595  0.51878689  0.47965611
   0.47513742  0.51179529  0.53871298
   0.48514745  0.49986752  0.50576669
   0.56311104  0.50042187  0.47511845
   0.53176097  0.50481791  0.49854889
Direct configuration=    64
   0.47706754  0.46432946  0.50219690
   0.46778625  0.51878695  0.47965606
   0.47513667  0.51179527  0.53871321
   0.48514760  0.49986758  0.50576685
   0.56311170  0.50042174  0.47511770
   0.53176031  0.50481797  0.49854924
Direct configuration=    65
   0.47706800  0.46432941  0.50219698
   0.46778668  0.51878705  0.47965601
   0.47513555  0.51179524  0.53871355
   0.48514781  0.49986769  0.50576711
   0.56311267  0.50042156  0.47511660
   0.53175934  0.50481803  0.49854971
Direct configuration=    66
   0.47706860  0.46432934  0.50219711
   0.46778725  0.51878719  0.47965596
   0.47513404  0.51179520  0.53871402
   0.48514807  0.49986782  0.50576746
   0.56311396  0.50042135  0.47511521
   0.53175813  0.50481807  0.49855022
Direct configuration=    67
   0.47706934  0.46432926  0.50219729
   0.46778794  0.51878738  0.47965592
   0.47513215  0.51179515  0.53871463
   0.48514836  0.49986799  0.50576792
   0.56311553  0.50042114  0.47511356
   0.53175675  0.50481805  0.49855065
Direct configuration=    68
   0.47707019  0.46432917  0.50219754
   0.46778873  0.51878761  0.47965591
   0.47512986  0.51179510  0.53871539
   0.48514865  0.49986820  0.50576850
   0.56311736  0.50042095  0.47511175
   0.53175527  0.50481794  0.49855087
Direct configuration=    69
   0.47707125  0.46432906  0.50219792
   0.46778971  0.51878791  0.47965596
   0.47512687  0.51179504  0.53871640
   0.48514894  0.49986847  0.50576929
   0.56311961  0.50042081  0.47510967
   0.53175368  0.50481767  0.49855072
Direct configuration=    70
   0.47707255  0.46432894  0.50219846
   0.46779088  0.51878832  0.47965607
   0.47512304  0.51179496  0.53871772
   0.48514920  0.49986881  0.50577035
   0.56312226  0.50042078  0.47510742
   0.53175214  0.50481716  0.49854994
Direct configuration=    71
   0.47707408  0.46432881  0.50219921
   0.46779226  0.51878882  0.47965630
   0.47511825  0.51179488  0.53871939
   0.48514936  0.49986922  0.50577173
   0.56312526  0.50042094  0.47510516
   0.53175086  0.50481630  0.49854817
Direct configuration=    72
   0.47707583  0.46432867  0.50220022
   0.46779383  0.51878945  0.47965668
   0.47511238  0.51179478  0.53872146
   0.48514937  0.49986972  0.50577347
   0.56312854  0.50042137  0.47510310
   0.53175010  0.50481498  0.49854504
Direct configuration=    73
   0.47707780  0.46432855  0.50220156
   0.46779558  0.51879021  0.47965727
   0.47510531  0.51179466  0.53872397
   0.48514916  0.49987030  0.50577562
   0.56313212  0.50042219  0.47510144
   0.53175009  0.50481306  0.49854011
Direct configuration=    74
   0.47707998  0.46432845  0.50220331
   0.46779749  0.51879111  0.47965815
   0.47509688  0.51179452  0.53872697
   0.48514869  0.49987098  0.50577825
   0.56313609  0.50042352  0.47510034
   0.53175093  0.50481038  0.49853295
Direct configuration=    75
   0.47708236  0.46432840  0.50220560
   0.46779954  0.51879218  0.47965941
   0.47508688  0.51179435  0.53873052
   0.48514795  0.49987176  0.50578142
   0.56314079  0.50042550  0.47509985
   0.53175253  0.50480677  0.49852317
Direct configuration=    76
   0.47708491  0.46432845  0.50220858
   0.46780171  0.51879344  0.47966122
   0.47507510  0.51179413  0.53873468
   0.48514701  0.49987267  0.50578515
   0.56314699  0.50042821  0.47509978
   0.53175433  0.50480206  0.49851057
Direct configuration=    77
   0.47708759  0.46432865  0.50221244
   0.46780392  0.51879490  0.47966373
   0.47506144  0.51179384  0.53873941
   0.48514606  0.49987370  0.50578945
   0.56315588  0.50043177  0.47509965
   0.53175517  0.50479610  0.49849529
Direct configuration=    78
   0.47709025  0.46432905  0.50221735
   0.46780603  0.51879654  0.47966711
   0.47504604  0.51179344  0.53874462
   0.48514533  0.49987490  0.50579417
   0.56316872  0.50043622  0.47509902
   0.53175369  0.50478881  0.49847770
Direct configuration=    79
   0.47709259  0.46432970  0.50222354
   0.46780770  0.51879834  0.47967161
   0.47502925  0.51179292  0.53875016
   0.48514493  0.49987617  0.50579912
   0.56318645  0.50044190  0.47509802
   0.53174915  0.50477993  0.49845751
Direct configuration=    80
   0.47709400  0.46433068  0.50223142
   0.46780829  0.51880026  0.47967763
   0.47501170  0.51179230  0.53875582
   0.48514472  0.49987735  0.50580401
   0.56320910  0.50044953  0.47509815
   0.53174227  0.50476883  0.49843295
Direct configuration=    81
   0.47709373  0.46433202  0.50224131
   0.46780700  0.51880229  0.47968544
   0.47499447  0.51179161  0.53876123
   0.48514426  0.49987817  0.50580845
   0.56323500  0.50045995  0.47510192
   0.53173561  0.50475493  0.49840161
Direct configuration=    82
   0.47709097  0.46433361  0.50225340
   0.46780292  0.51880435  0.47969520
   0.47497925  0.51179087  0.53876585
   0.48514336  0.49987826  0.50581186
   0.56326273  0.50047380  0.47511121
   0.53173084  0.50473806  0.49836246
Direct configuration=    83
   0.47708467  0.46433510  0.50226783
   0.46779483  0.51880637  0.47970684
   0.47496908  0.51179013  0.53876855
   0.48514247  0.49987714  0.50581317
   0.56329352  0.50049131  0.47512542
   0.53172549  0.50471891  0.49831816
Direct configuration=    84
   0.47707444  0.46433578  0.50228400
   0.46778218  0.51880813  0.47971957
   0.47496716  0.51178943  0.53876832
   0.48514269  0.49987451  0.50581123
   0.56332981  0.50051139  0.47514035
   0.53171378  0.50469971  0.49827650
Direct configuration=    85
   0.47705945  0.46433471  0.50230124
   0.46776400  0.51880943  0.47973254
   0.47497682  0.51178904  0.53876466
   0.48514324  0.49987008  0.50580544
   0.56336834  0.50053409  0.47515702
   0.53169820  0.50468160  0.49823907
Direct configuration=    86
   0.47703906  0.46433110  0.50231879
   0.46773959  0.51880997  0.47974494
   0.47500003  0.51178942  0.53875806
   0.48514194  0.49986350  0.50579587
   0.56340064  0.50056030  0.47518077
   0.53168880  0.50466466  0.49820154
Direct configuration=    87
   0.47701398  0.46432392  0.50233474
   0.46770953  0.51880910  0.47975485
   0.47503914  0.51179100  0.53874908
   0.48513878  0.49985478  0.50578257
   0.56342576  0.50058821  0.47520691
   0.53168287  0.50465194  0.49817181
Direct configuration=    88
   0.47701375  0.46432336  0.50233408
   0.46770916  0.51880874  0.47975414
   0.47504136  0.51179121  0.53874896
   0.48513882  0.49985452  0.50578210
   0.56342525  0.50058794  0.47520556
   0.53168171  0.50465319  0.49817512
Direct configuration=    89
   0.47701320  0.46432226  0.50233287
   0.46770832  0.51880801  0.47975285
   0.47504575  0.51179164  0.53874884
   0.48513873  0.49985400  0.50578130
   0.56342417  0.50058767  0.47520337
   0.53167989  0.50465538  0.49818075
Direct configuration=    90
   0.47701215  0.46432067  0.50233123
   0.46770681  0.51880690  0.47975115
   0.47505225  0.51179229  0.53874888
   0.48513821  0.49985320  0.50578032
   0.56342222  0.50058786  0.47520123
   0.53167843  0.50465803  0.49818717
Direct configuration=    91
   0.47701064  0.46431870  0.50232924
   0.46770467  0.51880542  0.47974915
   0.47506053  0.51179313  0.53874910
   0.48513713  0.49985215  0.50577926
   0.56341851  0.50058867  0.47520000
   0.53167858  0.50466088  0.49819321
Direct configuration=    92
   0.47700879  0.46431647  0.50232697
   0.46770206  0.51880358  0.47974695
   0.47507021  0.51179411  0.53874949
   0.48513559  0.49985089  0.50577819
   0.56341284  0.50059008  0.47519980
   0.53168056  0.50466383  0.49819857
Direct configuration=    93
   0.47700678  0.46431406  0.50232437
   0.46769914  0.51880135  0.47974457
   0.47508114  0.51179517  0.53875002
   0.48513390  0.49984944  0.50577707
   0.56340558  0.50059190  0.47519993
   0.53168351  0.50466704  0.49820400
Direct configuration=    94
   0.47700470  0.46431132  0.50232107
   0.46769588  0.51879841  0.47974175
   0.47509433  0.51179635  0.53875073
   0.48513243  0.49984771  0.50577574
   0.56339697  0.50059396  0.47519895
   0.53168576  0.50467121  0.49821172
Direct configuration=    95
   0.47700284  0.46430841  0.50231707
   0.46769256  0.51879467  0.47973859
   0.47510937  0.51179753  0.53875158
   0.48513165  0.49984577  0.50577424
   0.56338813  0.50059602  0.47519553
   0.53168551  0.50467656  0.49822295
Direct configuration=    96
   0.47700145  0.46430556  0.50231237
   0.46768931  0.51878989  0.47973539
   0.47512593  0.51179854  0.53875271
   0.48513167  0.49984368  0.50577285
   0.56337883  0.50059840  0.47518956
   0.53168288  0.50468288  0.49823709
Direct configuration=    97
   0.47700148  0.46430560  0.50231234
   0.46768929  0.51878977  0.47973546
   0.47512597  0.51179850  0.53875277
   0.48513164  0.49984368  0.50577294
   0.56337854  0.50059858  0.47518966
   0.53168314  0.50468283  0.49823678
Direct configuration=    98
   0.47700152  0.46430568  0.50231232
   0.46768921  0.51878953  0.47973563
   0.47512606  0.51179841  0.53875292
   0.48513157  0.49984365  0.50577311
   0.56337818  0.50059900  0.47518987
   0.53168353  0.50468267  0.49823611
Direct configuration=    99
   0.47700149  0.46430578  0.50231231
   0.46768899  0.51878918  0.47973593
   0.47512622  0.51179829  0.53875315
   0.48513146  0.49984361  0.50577337
   0.56337806  0.50059973  0.47519018
   0.53168383  0.50468236  0.49823503
Direct configuration=   100
   0.47700134  0.46430591  0.50231236
   0.46768858  0.51878872  0.47973637
   0.47512645  0.51179814  0.53875351
   0.48513130  0.49984354  0.50577369
   0.56337858  0.50060082  0.47519058
   0.53168381  0.50468182  0.49823345
Direct configuration=   101
   0.47700100  0.46430605  0.50231250
   0.46768788  0.51878819  0.47973701
   0.47512675  0.51179796  0.53875403
   0.48513108  0.49984344  0.50577407
   0.56338008  0.50060236  0.47519113
   0.53168326  0.50468095  0.49823123
Direct configuration=   102
   0.47700046  0.46430619  0.50231274
   0.46768691  0.51878758  0.47973783
   0.47512713  0.51179776  0.53875469
   0.48513082  0.49984329  0.50577448
   0.56338256  0.50060434  0.47519181
   0.53168219  0.50467978  0.49822841
Direct configuration=   103
   0.47699962  0.46430635  0.50231313
   0.46768549  0.51878682  0.47973896
   0.47512766  0.51179752  0.53875560
   0.48513047  0.49984307  0.50577498
   0.56338636  0.50060707  0.47519277
   0.53168046  0.50467812  0.49822453
Direct configuration=   104
   0.47699839  0.46430649  0.50231370
   0.46768348  0.51878588  0.47974047
   0.47512838  0.51179721  0.53875685
   0.48512999  0.49984274  0.50577553
   0.56339166  0.50061080  0.47519424
   0.53167815  0.50467583  0.49821917
Direct configuration=   105
   0.47699664  0.46430660  0.50231454
   0.46768071  0.51878473  0.47974247
   0.47512939  0.51179684  0.53875849
   0.48512935  0.49984225  0.50577612
   0.56339849  0.50061580  0.47519658
   0.53167549  0.50467273  0.49821176
Direct configuration=   106
   0.47699421  0.46430663  0.50231572
   0.46767695  0.51878334  0.47974506
   0.47513080  0.51179638  0.53876062
   0.48512848  0.49984153  0.50577669
   0.56340683  0.50062243  0.47520026
   0.53167279  0.50466864  0.49820162
Direct configuration=   107
   0.47699092  0.46430648  0.50231733
   0.46767194  0.51878171  0.47974835
   0.47513285  0.51179579  0.53876325
   0.48512743  0.49984048  0.50577712
   0.56341684  0.50063103  0.47520559
   0.53167009  0.50466345  0.49818833
Direct configuration=   108
   0.47698660  0.46430602  0.50231946
   0.46766536  0.51877980  0.47975246
   0.47513592  0.51179499  0.53876635
   0.48512636  0.49983900  0.50577722
   0.56342911  0.50064195  0.47521247
   0.53166671  0.50465719  0.49817200
Direct configuration=   109
   0.47698108  0.46430500  0.50232217
   0.46765689  0.51877759  0.47975744
   0.47514063  0.51179381  0.53876970
   0.48512555  0.49983691  0.50577674
   0.56344456  0.50065549  0.47522031
   0.53166135  0.50465016  0.49815361
Direct configuration=   110
   0.47697418  0.46430314  0.50232552
   0.46764611  0.51877504  0.47976337
   0.47514786  0.51179199  0.53877286
   0.48512496  0.49983403  0.50577547
   0.56346311  0.50067206  0.47522917
   0.53165385  0.50464268  0.49813357
Direct configuration=   111
   0.47696574  0.46430013  0.50232953
   0.46763264  0.51877213  0.47977025
   0.47515847  0.51178921  0.53877521
   0.48512380  0.49983004  0.50577330
   0.56348249  0.50069247  0.47524085
   0.53164691  0.50463497  0.49811084
Direct configuration=   112
   0.47695603  0.46429558  0.50233405
   0.46761642  0.51876874  0.47977796
   0.47517370  0.51178509  0.53877610
   0.48512151  0.49982460  0.50576974
   0.56350165  0.50071685  0.47525492
   0.53164076  0.50462810  0.49808719
Direct configuration=   113
   0.47694622  0.46428937  0.50233844
   0.46759837  0.51876483  0.47978578
   0.47519347  0.51177953  0.53877552
   0.48511924  0.49981768  0.50576442
   0.56352183  0.50074356  0.47526696
   0.53163093  0.50462398  0.49806884
Direct configuration=   114
   0.47693695  0.46428128  0.50234231
   0.46757871  0.51876030  0.47979333
   0.47521671  0.51177255  0.53877439
   0.48511616  0.49980926  0.50575790
   0.56353607  0.50077332  0.47528091
   0.53162546  0.50462223  0.49805112
Direct configuration=   115
   0.47693725  0.46428111  0.50234213
   0.46757876  0.51876022  0.47979319
   0.47521680  0.51177242  0.53877444
   0.48511633  0.49980918  0.50575788
   0.56353590  0.50077335  0.47528029
   0.53162502  0.50462267  0.49805204
Direct configuration=   116
   0.47693775  0.46428076  0.50234184
   0.46757875  0.51876006  0.47979300
   0.47521695  0.51177215  0.53877461
   0.48511658  0.49980902  0.50575788
   0.56353583  0.50077360  0.47527931
   0.53162421  0.50462336  0.49805332
Direct configuration=   117
   0.47693776  0.46428072  0.50234183
   0.46757870  0.51876004  0.47979301