<?xml version="1.0" encoding="ISO-8859-1"?>
<modeling>
 <generator>
  <i name="program" type="string">vasp </i>
  <i name="version" type="string">5.4.1  </i>
  <i name="subversion" type="string">24Jun15 (build Jan 13 2020 12:58:22) complex                          parallel </i>
  <i name="platform" type="string">IFC91_ompi </i>
  <i name="date" type="string">2020 02 03 </i>
  <i name="time" type="string">09:53:44 </i>
 </generator>
 <incar>
  <i type="int" name="ISTART">     0</i>
  <i type="string" name="PREC">normal</i>
  <i type="int" name="NELM">   500</i>
  <i type="int" name="NELMIN">     6</i>
  <i type="int" name="IBRION">     3</i>
  <i name="EDIFF">      0.00010000</i>
  <i name="EDIFFG">     -0.10000000</i>
  <i type="int" name="NSW">   300</i>
  <i type="int" name="ISIF">     2</i>
  <i name="ENCUT">    400.00000000</i>
  <i name="POTIM">      0.00000000</i>
  <i name="SMASS">      2.00000000</i>
  <i type="string" name="LREAL"> Auto</i>
  <i type="int" name="ISMEAR">     0</i>
  <i name="SIGMA">      0.20000000</i>
  <i type="logical" name="LWAVE"> F  </i>
  <i type="logical" name="LCHARG"> F  </i>
  <v type="int" name="KPOINT_BSE">    -1     0     0     0</v>
  <i type="int" name="NELM">   500</i>
  <i type="string" name="GGA"> PE</i>
 </incar>
 <kpoints>
  <generation param="Monkhorst-Pack">
   <v type="int" name="divisions">       2        2        2 </v>
   <v name="usershift">      0.00000000       0.00000000       0.00000000 </v>
   <v name="genvec1">      0.50000000       0.00000000       0.00000000 </v>
   <v name="genvec2">      0.00000000       0.50000000       0.00000000 </v>
   <v name="genvec3">      0.00000000       0.00000000       0.50000000 </v>
   <v name="shift">      0.50000000       0.50000000       0.50000000 </v>
  </generation>
  <varray name="kpointlist" >
   <v>       0.25000000       0.25000000       0.25000000 </v>
   <v>      -0.25000000       0.25000000       0.25000000 </v>
   <v>       0.25000000      -0.25000000       0.25000000 </v>
   <v>      -0.25000000      -0.25000000       0.25000000 </v>
  </varray>
  <varray name="weights" >
   <v>       0.25000000 </v>
   <v>       0.25000000 </v>
   <v>       0.25000000 </v>
   <v>       0.25000000 </v>
  </varray>
 </kpoints>
 <parameters>
  <separator name="general" >
   <i type="string" name="SYSTEM">unknown system</i>
   <i type="logical" name="LCOMPAT"> F  </i>
  </separator>
  <separator name="electronic" >
   <i type="string" name="PREC">normal</i>
   <i name="ENMAX">    400.00000000</i>
   <i name="ENAUG">    644.87300000</i>
   <i name="EDIFF">      0.00010000</i>
   <i type="int" name="IALGO">    38</i>
   <i type="int" name="IWAVPR">    11</i>
   <i type="int" name="NBANDS">    12</i>
   <i name="NELECT">     16.00000000</i>
   <i type="int" name="TURBO">     0</i>
   <i type="int" name="IRESTART">     0</i>
   <i type="int" name="NREBOOT">     0</i>
   <i type="int" name="NMIN">     0</i>
   <i name="EREF">      0.00000000</i>
   <separator name="electronic smearing" >
    <i type="int" name="ISMEAR">     0</i>
    <i name="SIGMA">      0.20000000</i>
    <i name="KSPACING">      0.50000000</i>
    <i type="logical" name="KGAMMA"> T  </i>
   </separator>
   <separator name="electronic projectors" >
    <i type="logical" name="LREAL"> T  </i>
    <v name="ROPT">     -0.00050000     -0.00050000     -0.00050000</v>
    <i type="int" name="LMAXPAW">  -100</i>
    <i type="int" name="LMAXMIX">     2</i>
    <i type="logical" name="NLSPLINE"> F  </i>
   </separator>
   <separator name="electronic startup" >
    <i type="int" name="ISTART">     0</i>
    <i type="int" name="ICHARG">     2</i>
    <i type="int" name="INIWAV">     1</i>
   </separator>
   <separator name="electronic spin" >
    <i type="int" name="ISPIN">     1</i>
    <i type="logical" name="LNONCOLLINEAR"> F  </i>
    <v name="MAGMOM">      1.00000000      1.00000000      1.00000000      1.00000000      1.00000000      1.00000000</v>
    <i name="NUPDOWN">     -1.00000000</i>
    <i type="logical" name="LSORBIT"> F  </i>
    <v name="SAXIS">      0.00000000      0.00000000      1.00000000</v>
    <i type="logical" name="LSPIRAL"> F  </i>
    <v name="QSPIRAL">      0.00000000      0.00000000      0.00000000</v>
    <i type="logical" name="LZEROZ"> F  </i>
   </separator>
   <separator name="electronic exchange-correlation" >
    <i type="logical" name="LASPH"> F  </i>
    <i type="logical" name="LMETAGGA"> F  </i>
   </separator>
   <separator name="electronic convergence" >
    <i type="int" name="NELM">   500</i>
    <i type="int" name="NELMDL">    -5</i>
    <i type="int" name="NELMIN">     6</i>
    <i name="ENINI">    400.00000000</i>
    <separator name="electronic convergence detail" >
     <i type="logical" name="LDIAG"> T  </i>
     <i type="logical" name="LSUBROT"> F  </i>
     <i name="WEIMIN">      0.00100000</i>
     <i name="EBREAK">      0.00000208</i>
     <i name="DEPER">      0.30000000</i>
     <i type="int" name="NRMM">     4</i>
     <i name="TIME">      0.40000000</i>
    </separator>
   </separator>
   <separator name="electronic mixer" >
    <i name="AMIX">      0.40000000</i>
    <i name="BMIX">      1.00000000</i>
    <i name="AMIN">      0.10000000</i>
    <i name="AMIX_MAG">      1.60000000</i>
    <i name="BMIX_MAG">      1.00000000</i>
    <separator name="electronic mixer details" >
     <i type="int" name="IMIX">     4</i>
     <i type="logical" name="MIXFIRST"> F  </i>
     <i type="int" name="MAXMIX">   -45</i>
     <i name="WC">    100.00000000</i>
     <i type="int" name="INIMIX">     1</i>
     <i type="int" name="MIXPRE">     1</i>
     <i type="int" name="MREMOVE">     5</i>
    </separator>
   </separator>
   <separator name="electronic dipolcorrection" >
    <i type="logical" name="LDIPOL"> F  </i>
    <i type="logical" name="LMONO"> F  </i>
    <i type="int" name="IDIPOL">     0</i>
    <i name="EPSILON">      1.00000000</i>
    <v name="DIPOL">   -100.00000000   -100.00000000   -100.00000000</v>
    <i name="EFIELD">      0.00000000</i>
   </separator>
  </separator>
  <separator name="grids" >
   <i type="int" name="NGX">   150</i>
   <i type="int" name="NGY">   150</i>
   <i type="int" name="NGZ">   150</i>
   <i type="int" name="NGXF">   300</i>
   <i type="int" name="NGYF">   300</i>
   <i type="int" name="NGZF">   300</i>
   <i type="logical" name="ADDGRID"> F  </i>
  </separator>
  <separator name="ionic" >
   <i type="int" name="NSW">   300</i>
   <i type="int" name="IBRION">     3</i>
   <i type="int" name="ISIF">     2</i>
   <i name="PSTRESS">      0.00000000</i>
   <i name="EDIFFG">     -0.10000000</i>
   <i type="int" name="NFREE">     0</i>
   <i name="POTIM">      0.00000000</i>
   <i name="SMASS">      2.00000000</i>
   <i name="SCALEE">      1.00000000</i>
  </separator>
  <separator name="ionic md" >
   <i name="TEBEG">      0.00010000</i>
   <i name="TEEND">      0.00010000</i>
   <i type="int" name="NBLOCK">     1</i>
   <i type="int" name="KBLOCK">   300</i>
   <i type="int" name="NPACO">   256</i>
   <i name="APACO">     16.00000000</i>
  </separator>
  <separator name="symmetry" >
   <i type="int" name="ISYM">     2</i>
   <i name="SYMPREC">      0.00001000</i>
  </separator>
  <separator name="dos" >
   <i type="logical" name="LORBIT"> F  </i>
   <v name="RWIGS">     -1.00000000     -1.00000000     -1.00000000</v>
   <i type="int" name="NEDOS">   301</i>
   <i name="EMIN">     10.00000000</i>
   <i name="EMAX">    -10.00000000</i>
   <i name="EFERMI">      0.00000000</i>
  </separator>
  <separator name="writing" >
   <i type="int" name="NWRITE">     2</i>
   <i type="logical" name="LWAVE"> F  </i>
   <i type="logical" name="LCHARG"> F  </i>
   <i type="logical" name="LPARD"> F  </i>
   <i type="logical" name="LVTOT"> F  </i>
   <i type="logical" name="LVHAR"> F  </i>
   <i type="logical" name="LELF"> F  </i>
   <i type="logical" name="LOPTICS"> F  </i>
   <v name="STM">      0.00000000      0.00000000      0.00000000      0.00000000      0.00000000      0.00000000      0.00000000</v>
  </separator>
  <separator name="performance" >
   <i type="int" name="NPAR">     1</i>
   <i type="int" name="NSIM">     4</i>
   <i type="int" name="NBLK">    -1</i>
   <i type="logical" name="LPLANE"> T  </i>
   <i type="logical" name="LSCALAPACK"> T  </i>
   <i type="logical" name="LSCAAWARE"> F  </i>
   <i type="logical" name="LSCALU"> F  </i>
   <i type="logical" name="LASYNC"> F  </i>
   <i type="logical" name="LORBITALREAL"> F  </i>
  </separator>
  <separator name="miscellaneous" >
   <i type="int" name="IDIOT">     3</i>
   <i type="logical" name="LMUSIC"> F  </i>
   <v name="POMASS">      1.00000000     12.01100000     14.00100000</v>
   <v name="DARWINR">      0.00000000      0.00000000      0.00000000</v>
   <v name="DARWINV">      1.00000000      1.00000000      1.00000000</v>
   <i type="logical" name="LCORR"> T  </i>
  </separator>
  <i type="logical" name="GGA_COMPAT"> T  </i>
  <i type="logical" name="LBERRY"> F  </i>
  <i type="int" name="ICORELEVEL">     0</i>
  <i type="logical" name="LDAU"> F  </i>
  <i type="int" name="I_CONSTRAINED_M">     0</i>
  <separator name="electronic exchange-correlation" >
   <i type="string" name="GGA">PE</i>
   <i type="int" name="VOSKOWN">     0</i>
   <i type="logical" name="LHFCALC"> F  </i>
   <i type="string" name="PRECFOCK"></i>
   <i type="logical" name="LSYMGRAD"> F  </i>
   <i type="logical" name="LHFONE"> F  </i>
   <i type="logical" name="LRHFCALC"> F  </i>
   <i type="logical" name="LTHOMAS"> F  </i>
   <i type="logical" name="LMODELHF"> F  </i>
   <i name="ENCUT4O">     -1.00000000</i>
   <i type="int" name="EXXOEP">     0</i>
   <i type="int" name="FOURORBIT">     0</i>
   <i name="AEXX">      0.00000000</i>
   <i name="HFALPHA">      0.00000000</i>
   <i name="MCALPHA">      0.00000000</i>
   <i name="ALDAX">      1.00000000</i>
   <i name="AGGAX">      1.00000000</i>
   <i name="ALDAC">      1.00000000</i>
   <i name="AGGAC">      1.00000000</i>
   <i type="int" name="NKREDX">     1</i>
   <i type="int" name="NKREDY">     1</i>
   <i type="int" name="NKREDZ">     1</i>
   <i type="logical" name="SHIFTRED"> F  </i>
   <i type="logical" name="ODDONLY"> F  </i>
   <i type="logical" name="EVENONLY"> F  </i>
   <i type="int" name="LMAXFOCK">     0</i>
   <i type="int" name="NMAXFOCKAE">     0</i>
   <i type="logical" name="LFOCKAEDFT"> F  </i>
   <i name="HFSCREEN">      0.00000000</i>
   <i name="HFSCREENC">      0.00000000</i>
   <i type="int" name="NBANDSGWLOW">     0</i>
  </separator>
  <separator name="vdW DFT" >
   <i type="logical" name="LUSE_VDW"> F  </i>
   <i name="Zab_VDW">     -0.84910000</i>
   <i name="PARAM1">      0.12340000</i>
   <i name="PARAM2">      1.00000000</i>
   <i name="PARAM3">      0.00000000</i>
  </separator>
  <separator name="model GW" >
   <i type="int" name="MODEL_GW">     0</i>
   <i name="MODEL_EPS0">   2700.00000000</i>
   <i name="MODEL_ALPHA">      1.00000000</i>
  </separator>
  <separator name="linear response parameters" >
   <i type="logical" name="LEPSILON"> F  </i>
   <i type="logical" name="LRPA"> F  </i>
   <i type="logical" name="LNABLA"> F  </i>
   <i type="logical" name="LVEL"> F  </i>
   <i type="int" name="KINTER">     0</i>
   <i name="CSHIFT">      0.10000000</i>
   <i name="OMEGAMAX">     -1.00000000</i>
   <i name="DEG_THRESHOLD">      0.00200000</i>
  </separator>
  <separator name="orbital magnetization" >
   <i type="logical" name="NUCIND"> F  </i>
   <v name="MAGPOS">      0.00000000      0.00000000      0.00000000</v>
   <i type="logical" name="LNICSALL"> T  </i>
   <i type="logical" name="ORBITALMAG"> F  </i>
   <i type="logical" name="LMAGBLOCH"> F  </i>
   <i type="logical" name="LCHIMAG"> F  </i>
   <i type="logical" name="LGAUGE"> T  </i>
   <i type="int" name="MAGATOM">     0</i>
   <v name="MAGDIPOL">      0.00000000      0.00000000      0.00000000</v>
   <v name="AVECCONST">      0.00000000      0.00000000      0.00000000</v>
  </separator>
  <separator name="response functions" >
   <i type="logical" name="LADDER"> F  </i>
   <i type="logical" name="LFXC"> F  </i>
   <i type="logical" name="LHARTREE"> T  </i>
   <i type="int" name="IBSE">     0</i>
   <v type="int" name="KPOINT">    -1     0     0     0</v>
   <i type="logical" name="LTCTE"> F  </i>
   <i type="logical" name="LTETE"> F  </i>
   <i type="logical" name="LTRIPLET"> F  </i>
   <i type="logical" name="LFXCEPS"> F  </i>
   <i type="logical" name="LFXHEG"> F  </i>
   <i type="int" name="NATURALO">     0</i>
   <i type="logical" name="L2ORDER"> F  </i>
   <i type="logical" name="LUSEW"> F  </i>
   <i name="ENCUTGW">     -2.00000000</i>
   <i name="ENCUTGWSOFT">     -2.00000000</i>
   <i name="ENCUTLF">     -1.00000000</i>
   <i type="int" name="LMAXMP2">    -1</i>
   <i name="SCISSOR">      0.00000000</i>
   <i type="int" name="NOMEGA">     0</i>
   <i type="int" name="NOMEGAR">     0</i>
   <i type="int" name="NBANDSGW">    -1</i>
   <i type="int" name="NBANDSO">    -1</i>
   <i type="int" name="NBANDSV">    -1</i>
   <i type="int" name="NELM">   500</i>
   <i type="int" name="NELMHF">     1</i>
   <i type="int" name="DIM">     3</i>
   <i type="int" name="ANTIRES">     0</i>
   <i name="OMEGAMAX">    -30.00000000</i>
   <i name="OMEGAMIN">    -30.00000000</i>
   <i name="OMEGATL">   -200.00000000</i>
   <i type="int" name="OMEGAGRID">     0</i>
   <i name="CSHIFT">     -0.10000000</i>
   <i type="logical" name="SELFENERGY"> F  </i>
   <i type="logical" name="LSPECTRAL"> F  </i>
   <i type="logical" name="LSPECTRALGW"> F  </i>
   <i type="logical" name="LSINGLES"> F  </i>
   <i type="logical" name="LFERMIGW"> F  </i>
   <i type="logical" name="ODDONLYGW"> F  </i>
   <i type="logical" name="EVENONLYGW"> F  </i>
   <i type="int" name="NKREDLFX">     1</i>
   <i type="int" name="NKREDLFY">     1</i>
   <i type="int" name="NKREDLFZ">     1</i>
   <i type="int" name="MAXMEM">  1800</i>
   <i type="int" name="TELESCOPE">     0</i>
   <i type="int" name="TAUPAR">     1</i>
   <i type="int" name="OMEGAPAR">    -1</i>
   <i name="LAMBDA">      1.00000000</i>
  </separator>
  <separator name="External order field" >
   <i name="OFIELD_KAPPA">      0.00000000</i>
   <v name="OFIELD_K">      0.00000000      0.00000000      0.00000000</v>
   <i name="OFIELD_Q6_NEAR">      0.00000000</i>
   <i name="OFIELD_Q6_FAR">      0.00000000</i>
   <i name="OFIELD_A">      0.00000000</i>
  </separator>
  <separator name="solvation model" >
   <i type="logical" name="LSOL"> F  </i>
  </separator>
 </parameters>
 <atominfo>
  <atoms>       6 </atoms>
  <types>       3 </types>
  <array name="atoms" >
   <dimension dim="1">ion</dimension>
   <field type="string">element</field>
   <field type="int">atomtype</field>
   <set>
    <rc><c>H </c><c>   1</c></rc>
    <rc><c>H </c><c>   1</c></rc>
    <rc><c>H </c><c>   1</c></rc>
    <rc><c>C </c><c>   2</c></rc>
    <rc><c>C </c><c>   2</c></rc>
    <rc><c>N </c><c>   3</c></rc>
   </set>
  </array>
  <array name="atomtypes" >
   <dimension dim="1">type</dimension>
   <field type="int">atomspertype</field>
   <field type="string">element</field>
   <field>mass</field>
   <field>valence</field>
   <field type="string">pseudopotential</field>
   <set>
    <rc><c>   3</c><c>H </c><c>      1.00000000</c><c>      1.00000000</c><c>  PAW_PBE H 15Jun2001                   </c></rc>
    <rc><c>   2</c><c>C </c><c>     12.01100000</c><c>      4.00000000</c><c>  PAW_PBE C 08Apr2002                   </c></rc>
    <rc><c>   1</c><c>N </c><c>     14.00100000</c><c>      5.00000000</c><c>  PAW_PBE N 08Apr2002                   </c></rc>
   </set>
  </array>
 </atominfo>
 <structure name="initialpos" >
  <crystal>
   <varray name="basis" >
    <v>      30.00000000       0.00000000       0.00000000 </v>
    <v>       0.00000000      30.00000000       0.00000000 </v>
    <v>       0.00000000       0.00000000      30.00000000 </v>
   </varray>
   <i name="volume">  27000.00000000 </i>
   <varray name="rec_basis" >
    <v>       0.03333333       0.00000000       0.00000000 </v>
    <v>       0.00000000       0.03333333       0.00000000 </v>
    <v>       0.00000000       0.00000000       0.03333333 </v>
   </varray>
  </crystal>
  <varray name="positions" >
   <v>       0.47040040       0.46659796       0.49448144 </v>
   <v>       0.47303530       0.52120342       0.47093351 </v>
   <v>       0.46976591       0.51437442       0.52997527 </v>
   <v>       0.48375560       0.50039962       0.49912614 </v>
   <v>       0.53212722       0.49919295       0.50169129 </v>
   <v>       0.57093270       0.49826246       0.50378711 </v>
  </varray>
 </structure>
 <calculation>
  <scstep>
   <time name="dav">   88.86   88.78</time>
   <time name="total">  109.13  109.04</time>
   <energy>
    <i name="alphaZ">      0.04144063 </i>
    <i name="ewald">    692.00171487 </i>
    <i name="hartreedc">  -1107.17275556 </i>
    <i name="XCdc">     51.35021331 </i>
    <i name="pawpsdc">    428.37890668 </i>
    <i name="pawaedc">   -430.73533574 </i>
    <i name="eentropy">     -0.21111290 </i>
    <i name="bandstr">   -116.25599345 </i>
    <i name="atom">    596.16534815 </i>
    <i name="e_fr_energy">    113.56242599 </i>
    <i name="e_wo_entrp">    113.77353889 </i>
    <i name="e_0_energy">    113.66798244 </i>
   </energy>
  </scstep>
  <scstep>
   <time name="dav">  113.80  113.70</time>
   <time name="total">  113.80  113.71</time>
   <energy>
    <i name="e_fr_energy">     -1.18616809 </i>
    <i name="e_wo_entrp">     -1.18603710 </i>
    <i name="e_0_energy">     -1.18610259 </i>
   </energy>
  </scstep>
  <scstep>
   <time name="dav">  100.67  100.59</time>
   <time name="total">  100.67  100.59</time>
   <energy>
    <i name="e_fr_energy">    -34.96348918 </i>
    <i name="e_wo_entrp">    -34.96348918 </i>
    <i name="e_0_energy">    -34.96348918 </i>
   </energy>
  </scstep>
  <scstep>
   <time name="dav">   92.21   92.14</time>
   <time name="total">   92.21   92.14</time>
   <energy>
    <i name="e_fr_energy">    -38.95758167 </i>
    <i name="e_wo_entrp">    -38.95758167 </i>
    <i name="e_0_energy">    -38.95758167 </i>
   </energy>
  </scstep>
  <scstep>
   <time name="dav">   86.74   86.68</time>
   <time name="total">   93.86   93.78</time>
   <energy>
    <i name="e_fr_energy">    -39.05953249 </i>
    <i name="e_wo_entrp">    -39.05953249 </i>
    <i name="e_0_energy">    -39.05953249 </i>
   </energy>
  </scstep>
  <scstep>
   <time name="dav">   88.43   88.36</time>
   <time name="total">  117.26  117.16</time>
   <energy>
    <i name="e_fr_energy">    -36.39900062 </i>
    <i name="e_wo_entrp">    -36.39900062 </i>
    <i name="e_0_energy">    -36.39900062 </i>
   </energy>
  </scstep>
  <scstep>
   <time name="dav">   83.85   83.78</time>
   <time name="total">  111.97  111.88</time>
   <energy>
    <i name="e_fr_energy">    -35.70837234 </i>
    <i name="e_wo_entrp">    -35.70837234 </i>
    <i name="e_0_energy">    -35.70837234 </i>
   </energy>
  </scstep>
  <scstep>
   <time name="dav">   90.62   90.55</time>
   <time name="total">  118.99  118.89</time>
   <energy>
    <i name="e_fr_energy">    -35.63762996 </i>
    <i name="e_wo_entrp">    -35.63762996 </i>
    <i name="e_0_energy">    -35.63762996 </i>
   </energy>
  </scstep>
  <scstep>
   <time name="dav">   89.79   89.72</time>
   <time name="total">  118.15  118.06</time>
   <energy>
    <i name="e_fr_energy">    -35.61895556 </i>
    <i name="e_wo_entrp">    -35.61895556 </i>
    <i name="e_0_energy">    -35.61895556 </i>
   </energy>
  </scstep>
  <scstep>
   <time name="dav">   91.25   91.18</time>
   <time name="total">  120.45  120.35</time>
   <energy>
    <i name="e_fr_energy">    -35.61864758 </i>
    <i name="e_wo_entrp">    -35.61864758 </i>
    <i name="e_0_energy">    -35.61864758 </i>
   </energy>
  </scstep>
  <scstep>
   <time name="dav">   87.45   87.38</time>
   <time name="total">  117.14  117.04</time>
   <energy>
    <i name="e_fr_energy">    -35.62037179 </i>
    <i name="e_wo_entrp">    -35.62037179 </i>
    <i name="e_0_energy">    -35.62037179 </i>
   </energy>
  </scstep>
  <scstep>
   <time name="dav">   80.22   80.15</time>
   <time name="total">  109.87  109.79</time>
   <energy>
    <i name="e_fr_energy">    -35.62606034 </i>
    <i name="e_wo_entrp">    -35.62606034 </i>
    <i name="e_0_energy">    -35.62606034 </i>
   </energy>
  </scstep>
  <scstep>
   <time name="dav">  107.42  107.33</time>
   <time name="total">  136.50  136.40</time>
   <energy>
    <i name="e_fr_energy">    -36.69332311 </i>
    <i name="e_wo_entrp">    -36.69332311 </i>
    <i name="e_0_energy">    -36.69332311 </i>
   </energy>
  </scstep>
  <scstep>
   <time name="dav">   88.66   88.58</time>
   <time name="total">  119.60  119.51</time>
   <energy>
    <i name="e_fr_energy">    -36.69756585 </i>
    <i name="e_wo_entrp">    -36.69756585 </i>
    <i name="e_0_energy">    -36.69756585 </i>
   </energy>
  </scstep>
  <scstep>
   <time name="dav">   89.01   88.94</time>
   <time name="total">  119.55  119.46</time>
   <energy>
    <i name="e_fr_energy">    -36.70058200 </i>
    <i name="e_wo_entrp">    -36.70058200 </i>
    <i name="e_0_energy">    -36.70058200 </i>
   </energy>
  </scstep>
  <scstep>
   <time name="dav">   89.53   89.46</time>
   <time name="total">  119.04  119.28</time>
   <energy>
    <i name="e_fr_energy">    -36.70283067 </i>
    <i name="e_wo_entrp">    -36.70283067 </i>
    <i name="e_0_energy">    -36.70283067 </i>
   </energy>
  </scstep>
  <scstep>
   <time name="dav">   68.02   67.96</time>
   <time name="total">   97.93   98.13</time>
   <energy>
    <i name="e_fr_energy">    -36.70373341 </i>
    <i name="e_wo_entrp">    -36.70373341 </i>
    <i name="e_0_energy">    -36.70373341 </i>
   </energy>
  </scstep>
  <scstep>
   <time name="dav">   68.10   68.04</time>
   <time name="total">   97.60   97.52</time>
   <energy>
    <i name="e_fr_energy">    -36.70419726 </i>
    <i name="e_wo_entrp">    -36.70419726 </i>
    <i name="e_0_energy">    -36.70419726 </i>
   </energy>
  </scstep>
  <scstep>
   <time name="dav">   60.06   60.01</time>
   <time name="total">   89.95   89.91</time>
   <energy>
    <i name="e_fr_energy">    -36.70445412 </i>
    <i name="e_wo_entrp">    -36.70445412 </i>
    <i name="e_0_energy">    -36.70445412 </i>
   </energy>
  </scstep>
  <scstep>
   <time name="dav">   67.57   67.52</time>
   <time name="total">   96.06   95.98</time>
   <energy>
    <i name="e_fr_energy">    -36.70456443 </i>
    <i name="e_wo_entrp">    -36.70456443 </i>
    <i name="e_0_energy">    -36.70456443 </i>
   </energy>
  </scstep>
  <scstep>
   <time name="dav">   53.36   53.31</time>
   <time name="total">   74.17   74.11</time>
   <energy>
    <i name="alphaZ">      0.04144063 </i>
    <i name="ewald">    673.09429610 </i>
    <i name="hartreedc">  -1153.57650205 </i>
    <i name="XCdc">     54.97071055 </i>
    <i name="pawpsdc">   1374.20044878 </i>
    <i name="pawaedc">  -1377.00124225 </i>
    <i name="eent  <structure>
   <crystal>
    <varray name="basis" >
     <v>      30.00000000       0.00000000       0.00000000 </v>
     <v>       0.00000000      30.00000000       0.00000000 </v>
     <v>       0.00000000       0.00000000      30.00000000 </v>
    </varray>
    <i name="volu  <structure>
   <crystal>
    <varray name="basis" >
     <v>      30.00000000       0.00000000       0.00000000 </v>
     <v>       0.00000000      30.00000000       0.00000000 </v>
     <v>       0.00000000       0.00000000      30.00000000 </v>
    </varray>
    <i name="volume">  27000.00000000 </i>
    <varray name="rec_basis" >
     <v>       0.03333333       0.00000000       0.00000000 </v>
     <v>       0.00000000       0.03333333       0.00000000 </v>
     <v>       0.00000000       0.00000000       0.03333333 </v>
    </varray>
   </crystal>
   <varray name="positions" >
    <v>       0.47040040       0.46659796       0.49448144 </v>
    <v>       0.47303530       0.52120342       0.47093351 </v>
    <v>       0.46976591       0.51437442       0.52997527 </v>
    <v>       0.48375560       0.50039962       0.49912614 </v>
    <v>       0.53212722       0.49919295       0.50169129 </v>
    <v>       0.57093270       0.49826246       0.50378711 </v>
   </varray>
  </structure>
  <varray name="forces" >
   <v>       0.00184618      -0.00243674      -0.00134203 </v>
   <v>      -0.00009519      -0.00047767      -0.00150200 </v>
   <v>      -0.00164242      -0.00124092       0.00002375 </v>
   <v>       0.00758536      -0.00097919       0.00027427 </v>
   <v>      -0.06379994       0.00222836      -0.00126883 </v>
   <v>       0.0561060  <energy>
   <i name="e_fr_energy">    -35.61827769 </i>
   <i name="e_wo_entrp">    -35.61827769 </i>
   <i name="e_0_energy">      0.00000000 </i>
  </energy>
  <time name="totalsc"> 2410.89 2409.55</time>
 </calculation>
764       0.00004979      -0.05615705 </v>
  </varray>
  <energy>
   <i name="e_fr_energy">    -36.33057468 </i>
   <i name="e_wo_entrp">    -36.33057468 </i>
   <i name="e_0_energy">      0.00000000 </i>
  </energy>
  <time name="totalsc"> 24   <time name="dav">   74.21   74.15</time>
   <time name="tota   <time name="dav">   84.09   84.02</time>
   <time name="total">  117.08  116.98</time>
   <energy>
    <i name="alphaZ">      0.04144063 </i>
      <time name="total">  120.55  120.45</time>
   <energy>
    <i name="alphaZ">      0.04144063 </i>
    <i name="ewald">    683.51905998 </i>
    <i name="hartreedc">  -1163.92753670 </i>
    <i name="XCdc">     55.04507847 </i>
    <i name="pawpsdc">   1381.81084525 </i>
    <i name="pawaedc">  -1384.62253885 </i>
    <i name="eentropy">      0.00000000 </i>
    <i name="bandstr">   -204.36298149 </i>
    <i name="atom">    596.16534815 </i>
    <i name   <time name="dav">   79.98   79.92</time>
   <time name="total">  105.77  105.68</time>   <time name="dav">   87.49   87.42</time>
   <time name="total">  118.33  118.23</time>
   <energy>
    <i name="e_fr_energy">    -35.64217874 </i>
    <i name="e_wo_entrp">    -35.64217874   <time name="dav">   53.26   53.22</time>
   <time name="tota   <time name="dav">   67.   <time name="dav">   91.73   91.66</time>
   <time name="total">  121.51  121.41</time>
   <energy>
    <i name="e_fr_energy">    -35.61889661 </i>
    <i name="e_wo_entrp">    -35.61889661   <time name="dav">   54.76   54.71</time>
   <time name="tota   <time name="dav">   62.   <time name="dav">   72.02   71.96</time>
   <time name="total">  100.22  100.14</time>
   <energy>
    <i name="e_fr_energy">    -35.61890284 </i>
    <i name="e_wo_entrp">    -35.61890284   <time name="dav">   56.23   56.18</time>
   <time name="tota   <time name="dav">   58.   <time name="dav">   71.14   71.08</time>
   <time name="total">   99.60   99.53</time>
   <energy>
    <i name="e_fr_energy">    -35.61890583 </i>
    <i name="e_wo_entrp">    -35.61890583 </i>
    <i name="e_0_energy">    -35.61890583 </i>
   </energ   <time name="dav">   60.   <time name="dav">   48.97   48.93</time>
   <time name="total">   68.91   69.51</time>
   <energy>
    <i name="alphaZ">      0.04144063 </i>
    <i name="ewald">    703.64890025 </i>
    <i name="hartreedc">  -1178.58476607 </i>
    <i name="XCdc">     54.88234977 </i>
    <i name="pawpsdc">   1332.95291054 </i>
    <i name="pawaedc">  -1335.82404627 </i>
    <i name="eentropy">      0.00000000 </i>
    <i name="bandstr">   -208.90104459 </i>
    <i name="atom">    596.16534815 </i>
    <i name="e_fr_energy">    -35.61890758 </i>
    <i name="e_wo_entrp">    -  <structure>
   <crystal>
    <varray name="basis" >
     <v>   <structure>
   <crystal>  <structure>
   <crystal>
    <varray name="basis" >
     <v>      30.00000000       0.00000000       0.00000000 </v>
     <v>       0.00000000      30.00000000       0.00000000 </v>
     <v>       0.00000000       0.00000000      30.00000000 </v>
    </varray>
    <i name="volume">  27000.00000000 </i>
    <varray name="rec_basis" >
     <v>       0.03333333       0.00000000       0.00000000 </v>
     <v>       0.00000000       0.03333333       0.00000000 </v>
     <v>       0.00000000       0.00000000       0.03333333 </v>
    </varray>
   </crystal>
   <varray name="positions" >
    <v>       0.46812745       0.47629010       0.51992354 </v>
    <v>       0.46818062       0.51562450       0.47500521 </v>
    <v>       0.48548117       0.53249022       0.52938443 </v>
    <v>       0.48567824       0.50489351       0.50527643 </v>
    <v>       0.56299371       0.47870208       0.47742211 </v>
    <v>       0.52954337       0.49201223       0.49298716 </v>
   </varray>
  </structure>
  <varray name="forces" >
   <v>      -0.02370389      -0.00317027       0.00654480 </v>
   <v>      -0.14250355       0.02811420       0.00437062 </v>
   <v>       0.16745765      -0.03226396      -0.01108302 </v>
   <v>       0.04265772      -0.03357079      -0.06884309 </v>
   <v>       0.48773915      -0.09650931      -0.05308360 </v>
   <v>      -0.53164707       0.13740012       0.12209430 </v>
  </varray>
  <varray name="stress" >
   <v>      -0.02079418      -0.00660696      -0.00110088 </v>
   <v>      -0.00660696      -0.05827000      -0.  <energy>
   <i name="e_fr_energy">    -35.63760958 </i>
   <i  <energy>
   <i name="e_fr_energy">    -36.70463518 </i>
   <i name="e_wo_entrp">    -36.70463518   <time name="totalsc">  767.34  767.48</time>
 </calculation>
  <time name="totalsc">  7  <time name="totalsc">  767.41  767.56</time>
 </ca  <time name="totalsc">  768.10  767.57</time>
 </ca  <time name="totalsc">  766.50  767.55</time>
 </ca  <time name="totalsc">  767.64  767.50</time>
 </ca  <time name="totalsc">  7  <time name="totalsc">  7  <time name="totalsc </ca  <time name="totalsc">  7   <time name="dav">   66.   <time name="dav   <time name="total">   9   <time name="total">   98.63   98.55</time>
   <en   <time name="total">  10   <time name="total">  101.98  101.90</time>
   <energy>
     <time name="dav">   80.38   80.31</time>
   <time name="total">  113.34  113.25</time>
   <energy>
    <i name="alphaZ">      0.04144063 </i>
    <i name="ewald">    695.19205800 </i>
    <i name="hartreedc">  -1174.10119590 </i>
    <i name="XCdc">     54.42890519 </i>
    <i name="pawpsdc">   1213.24566144 </i>
    <i name="pawaedc">  -1215.97700946 </i>
    <i name="eentropy">      0.00000000 </i>
    <i name="bandstr">   -203.20025171 </i>
    <i name   <time name="dav">   81.83   81.76</time>
   <time name="total">  108.50  10   <time name="dav">   87.64   87.57</time>
   <time name="total">  119.42  119.33</time>
   <energy>
    <i name="e_fr_energy">    -35.64191939 </i>
    <i name="e_wo_entrp">    -35.64191939 </i>
    <   <time name="dav">   63.76   63.71</time>
   <time name="total">   89.50   8   <time name="dav">   72.86   72.80</time>
   <time name="total">  103.00  102.92</time>
   <energy>
    <i name="e_fr_energy">    -35.62009003 </i>
    <i name="e_wo_entrp">    -35.62009003 </i>
    <   <time name="dav">   47.80   47.76</time>
   <time name="total">   73.91   7   <time name="dav">   66.83   66.78</time>
   <time name="total">   95.83   95.75</time>
   <energy>
    <i name="e_fr_energy">    -35.62009666 </i>
    <i name="e_wo_entrp">    -35.62009666 </i>
    <   <time name="dav">   48.54   48.50</time>
   <time name="total">   75.28   7   <time name="dav">   52.80   52.76</time>
   <time name="total">   82.06   81.99</time>
   <energy>
    <i name="e_fr_energy">    -35.62009898 </i>
    <i name="e_wo_entrp">    -35.62009898 </i>
    <   <time name="dav">   48.88   48.84</time>
   <time   <time name="dav">   57.   <time name="dav">   45.21   45.17</time>
   <time name="total">   66.66   66.61</time>
   <energy>
    <i name="alphaZ">      0.04144063 </i>
   <time name="dav">   57.72   57.67</time>
   <time name="total">   81.27   81.20</time>
   <energy>
    <i name="alphaZ">      0.04144063 </i>
    <i name="ewald">    708.55996002 </i>
    <i name="hartreedc">  -1185.66432774 </i>
    <i name="XCdc">     54.60656944 </i>
    <i name="pawpsdc">   1238.38682595 </i>
    <i name="pawaedc">  -1241.18657034 </i>
    <i name="eentropy">      0.00000000 </i>
    <i name="bandstr">   -205  <structure>
   <crystal>  <structure>
   <crystal>  <structure>
   <crystal>  <structure>
   <crystal>
    <varray name="basis" >
     <v>      30.00000000       0.00000000       0.00000000 </v>
     <v>       0.00000000   <structure>
   <crystal>
    <varray name="basis" >
     <v>      30.00000000       0.00000000       0.00000000 </v>
     <v>       0.00000000      30.00000000       0.00000000 </v>
     <v>       0.00000000       0.00000000      30.00000000 </v>
    </varray>
    <i name="volume">  27000.00000000 </i>
    <varray name="rec_basis" >
     <v>       0.03333333       0.00000000       0.00000000 </v>
     <v>       0.00000000       0.03333333       0.00000000 </v>
     <v>       0.00000000       0.00000000       0.03333333 </v>
    </varray>
   </crystal>
   <varray name="positions" >
    <v>       0.48010655       0.46411032       0.50054894 </v>
    <v>       0.47082420       0.51869515       0.47790835 </v>
    <v>       0.47494434       0.51126210       0.53736465 </v>
    <v>       0.48653394       0.49990297       0.50518376 </v>
    <v>       0.55100784       0.49682339       0.47192019 </v>
    <v>       0.53659319       0.50922502       0.50707408 </v>
   </varray>
  </structure>
  <varray name="forces" >
   <v>       0.04045899       0.15143087       0.15129479 </v>
   <v>       0.06227149       0.02144831       0.20802834 </v>
   <v>      -0.53694668       0.03440909       0.29769747 </v>
   <v>      -0.07219089       0.17900527       0.45660515 </v>
   <v>       1.43838997       0.09079146      -0.36571271 </v>
   <v>      -0.93198289      -0.47708499      -0.74791304 </v>
  </varray>
  <v  <energy>
   <i name="e_fr_energy">    -35.63807630 </i>
   <i name="e_wo_entrp">    -35.63807630 </i>
   <i name="e_0_energy">      0.   <i name="e_  </energy>
  <time name="totalsc">  7  <time name="totalsc">  7  <time name="totalsc">  7  <time name="totalsc">  7  <time name="totalsc">  7  <time name="totalsc">  7  <time name="totalsc">  725.73  725.38</time>
 </ca  <time name="t  <time name="t  <time name="totalsc">  725.91  725.43</time>
 </ca   <time name="dav">   68.   <time name="dav   <time name="total">   9   <time name="total">  101.62  101.54</time>
   <en   <time name="total">  107.78  107.70</time>
   <energy>
    <i name="alphaZ">      0.04144063 </i>
    <i name="ewald">    673.06224497 </i>
    <i name="hartreedc">  -1153.51528900 </i>
    <i name="XCdc">     54.96766468 </i>
    <i name="pawpsdc">   1373.13946214 </i>
    <i name="pawaedc">  -1375.93932309 </i>
    <i name="eentropy">      0.00000000 </i>
    <i name="bandstr">   -204.62621794 </i>
    <i name="atom">    596.16534815 </i>
    <i name="e_fr_energy">    -36.70466946 </i>
    <i name="e_wo_entrp">    -36.70466946 </i>
    <   <time name="dav">   84.   <time name="dav">   87.28   87.21</time>
   <time name="total">  118.76  118.67</time>
   <energy>
    <i name="e_fr_energy">    -35.64072884 </i>
    <i name="e_wo_entrp">    -35.64072884 </i>
    <i name="e_0_energy">    -35.64072884 </i>
   </energ   <time name="dav">   55.   <time name="dav">   80.82   80.75</time>
   <time name="total">  111.10  111.07</time>
   <energy>
    <i name="e_fr_energy">    -35.64076298 </i>
    <i name="e_wo_entrp">    -35.64076298 </i>
    <i name="e_0_energy">    -35.64076298 </i>
   </energ   <time name="dav">   52.   <time name="dav">   71.93   71.87</time>
   <time name="total">  101.49  101.41</time>
   <energy>
    <i name="e_fr_energy">    -35.64079314 </i>
    <i name="e_wo_entrp">    -35.64079314 </i>
    <i name="e_0_energy">    -35.64079314 </i>
   </energ   <time name="dav">   49.   <time name="dav">   52.94   52.90</time>
   <time name="total">   82.16   8   <time name="dav">   71.21   71.15</time>
   <time name="total">  100.36  100.28</time>
   <energy>
    <i name="e_fr_energy">    -35.62061595 </i>
    <i name="e_wo_entrp">    -35.62061595 </i>
    <   <time name="dav">   42.22   42.18</time>
   <time name="total">   63.84   6   <time name="dav">   49.82   49.78</time>
   <time name="total">   71.05   70.99</time>
   <energy>
    <i name="alphaZ">      0.04144063 </i>
    <i name="ewald">    702.89031273 </i>
    <i name="hartreedc">  -1177.96594779 </i>
    <i name="XCdc">     54.85233177 </i>
    <i name="pawpsdc">   1325.82883334 </i>
    <i name="pawaedc">  -1328.69451687 </i>
    <i name="eentropy">      0.00000000 </i>
    <i name="bandstr">   -208.73841874 </i>
    <i name="atom">    596.16534815 </i>
    <i name="e_fr_energy">    -35.62061680 </i>
    <i name="e_  <structure>
   <crystal>  <structure>
   <crystal>
    <varray name="basis" >
     <v>      30.0000000  <structure>
   <crystal>
    <varray name="basis" >
     <v>      30.00000000       0.00000000       0.00000000 </v>
     <v>       0.00000000      30.00000000       0.00000000 </v>
     <v>       0.00000000       0.00000000      30.00000000 </v>
    </varray>
    <i name="volume">  27000.00000000 </i>
    <varray name="rec_basis" >
     <v>       0.03333333       0.00000000       0.00000000 </v>
     <v>       0.00000000       0.03333333       0.00000000 </v>
     <v>       0.00000000       0.00000000       0.03333333 </v>
    </varray>
   </crystal>
   <varray name="positions" >
    <v>       0.46812144       0.47628904       0.51992534 </v>
    <v>       0.46814355       0.51563152       0.47500668 </v>
    <v>       0.48552352       0.53248168       0.52938174 </v>
    <v>       0.48568512       0.50488593       0.50526003 </v>
    <v>       0.56309625       0.47868706       0.47741864 </v>
    <v>       0.52943468       0.49203740       0.49300644 </v>
   </varray>
  </structure>
  <varray name="forces" >
   <v>      -0.02960640       0.00192743       0.00738636 </v>
   <v>      -0.14409615       0.02914441       0.01026408 </v>
   <v>       0.15478950      -0.03194875      -0.01208139 </v>
   <v>      -0.05598872      -0.00431445      -0.03988015 </v>
   <v>      -0.05973556       0.11839123       0.19770704 </v>
   <v>       0.13463734      -0.11319987      -0.16339594 </v>
  </varray>
  <varray name="stress" >
   <v>      -0.04337780       0.00315467       0.01080147 </v>
   <v>       0.00315467      -0.06  <energy>
   <i name="e_f  <energy>
   <i name="e_fr_energy">    -35.64080475 </i>
   <i name="e_wo_entrp">    -35.64080475 </i>
   <i name=   <i name="e_fr_ener  <time name="totalsc">  7  <time name="totalsc">  752.17  751.65</time>
 </calculation>
36</time>
 </ca  <time name="totalsc">  7  <time name="totalsc">  752.22  751.70</time>
 </ca  <time name="totalsc">  7  <time name="totalsc">  7  <time name="totalsc">  7  <time name="totalsc">  7  <time name="totalsc">  7  <time name="totalsc">  7  <time name="totalsc">  7   <time name="dav">   70.00   69.95</time>
   <time name="total">   97.52   97.45</time>
   <en   <time name="total">  103.60  103.52</time>
   <en   <time name="total">  104.45  104.37</time>
   <en   <time name="total">  106.05  105.97</time>
   <energy>
    <i name="alphaZ">      0.04144063 </i>
    <i name="ewald">    683.42873846 </i>
    <i name="   <time name="total">  10   <time name="total">  106.29  106.20</time>
   <energy>
    <i name="alphaZ">      0.04144063 </i>
    <i name="ewald">    708.50907914 </i>
    <i name="hartreedc">  -1185.54133683 </i>
    <i name="XCdc">     54.61654339 </i>
    <i name="pawpsdc">   1240.76821536 </i>
    <i name="p   <time name="dav">   76.47   76.41</time>
   <time name="total">  103.61  103.53</time>
   <energy>
     <time name="dav">   85.39   85.32</time>
   <time name="total">  116.05  115.96</time>
   <energy>
    <i name="e_fr_energy">    -35.63795320 </i>
    <i name="e_wo_entrp">    <time name="dav">   65.00   64.94</time>
   <time name="total">   92.36   92.29</time>
   <energy>
     <time name="dav">   79.91   79.85</time>
   <time name="total">  110.59  110.50</time>
   <energy>
    <i name="e_fr_energy">    -35.63796968 </i>
    <i name="e_wo_entrp">    <time name="dav">   48.84   48.80</time>
   <time name="total">   76.45   76.39</time>
   <energy>
     <time name="dav">   70.28   70.23</time>
   <time name="total">   99.53   99.45</time>
   <energy>
    <i name="e_fr_energy">    -35.63802615 </i>
    <i name="e_wo_entrp">    <time name="dav">   66.85   66.80</time>
   <time name="total">   94.51   94.43</time>
   <energy>
     <time name="dav">   52.22   52.18</time>
   <time name="total">   80.43   80.37</time>
   <energy>
    <i name="e_fr_energy">    -35.63804034 </i>
    <i name="e_wo_entrp">    <time name="dav">   48.07   48.03</time>
   <time name="total">   68.23   68.17</time>
   <energy>
     <time name="dav">   42.14   42.11</time>
   <time name="total">   62.92   62.88</time>
   <energy>
    <i name="alphaZ">      0.04144063 </i>
    <i name   <time name="dav">   47.17   47.13</time>
   <time name="total">   69.47   69.42</time>
   <energy>
    <i name="alphaZ">      0.04144063 </i>
    <i name="ewald">    703.00634178 </i>
    <i name="hartreedc">  -1178.01441891 </i>
    <i name="XCdc">     54.86601071 </i>
    <i name="pawpsdc">   1328.69798109 </i>
    <i name="pawaedc">  -1331.56548219 </i>
    <i name="eentropy">      0.000000  <structure>
   <crystal>
    <varray name="basis" >
     <v>      30.00000000       0.00000000       0  <structure>
   <crystal>
    <varray name="basis" >
     <v>      30.00000000       0.00000000       0.00000000 </v>
     <v>       0.00000000      30.000  <structure>
   <crystal>
    <varray name="basis" >
     <v>      30.00000000       0.00000000       0.00000000 </v>
     <v>       0.00000000      30.00000000       0.00000000 </v>
     <v>       0.00000000       0.00000000      30.00000000 </v>
    </varray>
    <i name="volume">  27000.00000000 </i>
    <varray name="rec_basis" >
     <v>       0.03333333       0.00000000       0.00000000 </v>
     <v>       0.00000000       0.03333333       0.00000000 </v>
     <v>       0.00000000       0.00000000       0.03333333 </v>
    </varray>
   </crystal>
   <varray name="positions" >
    <v>       0.46684857       0.47003691       0.49945419 </v>
    <v>       0.47470706       0.52135302       0.47013713 </v>
    <v>       0.47375643       0.52089641       0.52971939 </v>
    <v>       0.48410600       0.50230124       0.49994359 </v>
    <v>       0.56979368       0.48995109       0.50025313 </v>
    <v>       0.53080090       0.49549057       0.50048955 </v>
   </varray>
  </structure>
  <varray name="forces" >
   <v>      -0.03268494      -0.03069679      -0.00150429 </v>
   <v>      -0.02301799       0.01693032      -0.02646954 </v>
   <v>      -0.00534385       0.01881652       0.03344580 </v>
   <v>       0.01908025      -0.00300017      -0.00076560 </v>
   <v>      -0.11083379       0.01430729       0.01670604 </v>
   <v>       0.15280032      -0.01635718    <energy>
   <i name="e_fr_energy">    <i name="e_fr_energy">    -36.70466984 </i>
   <i name="e_wo_entrp">     <i name="e_wo_entrp">     <i name="e_wo_entrp">    <time name="totalsc">  7  <time name="totalsc">  7  <time name="totalsc">  732.59  732.03</time>
 </ca  <time name="totalsc">  732.53  731.97</time>
 </ca  <time name="totalsc">  732.02  731.90</time>
 </calculation>
74</time>
 </ca  <time name="totalsc">  7  <time name="totalsc">  732.40  731.84</time>
 </calculation>
66</time>
 </ca  <time name="totalsc">  7  <time name="totalsc">  7   <time name="dav">   71.   <time name="dav   <time name="total">   9   <time   <time name="dav">   74.97   74.91</time>
   <time name="total">  107.70  107.62</time>
   <energy>
    <i name="alphaZ">      0.04144063 </i>
    <i name="ewald">    674.2   <time name="total">  108.06  107.98</time>
   <energy>
    <i name="alphaZ">      0.04144063 </i>
    <i name="ewald">    683.40455415 </i>
    <i name="hartreedc">  -1163.81037323 </i>
    <i name="XCdc">     55.04511641 </i>
    <i name="pawpsdc">   1381.92834795 </i>
    <i name="pawaedc">  -1384.74000816 </i>
    <i name="eentropy">      0.00000000 </i>
    <i name="bandstr">   -204.37236117 </i>
    <i name   <time name="dav">   72.74   72.68</time>
   <time name="total">   99.91   99.83</time>
   <energy>
     <time name="dav">   70.   <time name="dav   <time name="total">  102.25  102.17</time>
   <energy>
    <i name="e_fr_en   <time   <time name="dav">   81.93   81.86</time>
     <time name="dav">   66.76   66.71</time>
   <time name="total">   94.33   94.26</time>
   <energy>
    <i name="e_fr_energy">     <time name="dav">   85.02   84.95</time>
   <time name="total">  111.33  111.24</time>
   <en   <time name="total">  109.02  108.93</time>
   <ener   <time name="dav">   50.86   50.82</time>
   <time name="total">   79.69   79.63</time>
   <energy>
     <time name="dav">   71.   <time name="dav">   68.89   68.84</time>
   <time   <time name="dav">   84.90   84.83</time>
   <time name="total">  113.76  113.67</time>
   <ener   <time name="dav">   66.60   66.55</time>
   <time name="total">   94.77   94.81</time>
   <energy>
    <i name="e_fr_energy">     <time name="dav">   57.94   57.89</time>
   <time   <time name="dav">   52.82   52.78</time>
   <time name="total">   81.48   81.42</time>
   <ener   <time name="dav">   48.07   48.03</time>
   <time name="total">   68.58   68.53</time>
   <energy>
     <time name="dav">   42.   <time name="dav">   56.37   56.32</time>
   <time   <time name="dav">   41.00   40.97</time>
   <time name="total">   61.51   61.47</time>
   <energy>
    <i name="alphaZ">      0.04144063 </i>
    <i name="ewald">    700.43187180 </i>
    <i name="hartreedc">  -1175.66918591 </i>
    <i name="XCdc">     54.80574562 </i>
    <i name="pawpsdc">   1317.92429463 </i>
    <i name="pawaedc">  -1320.78579663 </i>
    <i name="eentropy">      0.00000000 </i>
    <i name="bandstr">   -208.54626981 </i>
    <i name="atom">    596  <structure>
   <crystal>
    <varray name="basis" >
     <v>      30.00000000       0.00000000       0  <structure>
   <crystal>  <structure>
   <crystal>
    <varray name="basis"   <structure>
   <crystal>
    <varray name="basis" >
     <v>      30.00000000       0.00000000       0.00000000 </v>
     <v>       0.00000000      30.00000000       0.00000000 </v>
     <v>       0.00000000       0.00000000      30.00000000 </v>
    </varray>
    <i name="volume">  27000.00000000 </i>
    <varray name="rec_basis" >
     <v>       0.03333333       0.00000000       0.00000000 </v>
     <v>       0.00000000       0.03333333       0.00000000 </v>
     <v>       0.00000000       0.00000000       0.03333333 </v>
    </varray>
   </crystal>
   <varray name="positions" >
    <v>       0.47213469       0.46461422       0.50420390 </v>
    <v>       0.46330790       0.51886158       0.48148032 </v>
    <v>       0.48172980       0.51286842       0.53781318 </v>
    <v>       0.48454949       0.49911518       0.50391274 </v>
    <v>       0.56844698       0.50390700       0.48257552 </v>
    <v>       0.52984112       0.50065245       0.49001429 </v>
   </varray>
  </structure>
  <varray name="forces" >
   <v>       0.09051303       0.00164199      -0.02958146 </v>
   <v>       0.09082962       0.00412292      -0.03491764 </v>
   <v>       0.00820455      -0.01764898      -0.04091681 </v>
   <v>       0.01532584       0.00828815       0.02068308 </v>
   <v>      -0.27806471      -0.07135917      -0.05199449 </v>
   <v>       0.07319167       0.07495509       0.13672732 </v>
  </varray>
  <varray name="stress" >
   <v>      -0.0904  <energy>
   <i name="e_fr_energy">    -35.63978213 </i>
   <i name="e_wo_entrp">    -35.63978213 </i>
   <i name=   <i name="e_fr_energy">    -35.62090000 </i>
  <time name="totalsc">  7  <time name="totalsc">  734.03  733.46</time>
 </calculation>
88</time>
 </ca  <time name="totalsc">  7  <time name="totalsc">  7  <time name="totalsc">  733.89  733.33</time>
 </calculation>
63</time>
 </ca  <time name="totalsc">  7  <time name="totalsc">  7  <time name="totalsc">  734.13  733.56</time>
 </ca  <time name="totalsc">  734.17  733.60</time>
 </ca   <time name="dav">   67.   <time name="dav">   67.18   67.12</time>
   <time name="total">  100.79  100.71</time>
   <energy>
    <i name="alphaZ">      0.04144063 </i>
    <i name="ewald">    674.18016358 </i>
    <i name="hartreedc">  -1154.6459426   <time name="total">  10   <time name="total">  104.60  104.52</time>
   <energy>
    <i name="alphaZ">      0.04144063 </i>
    <i name="ewald">    708.30998357 </i>
    <i name="hartreedc">  -1185.29107822 </i>
    <i name="XCdc">     54.62510865 </i>
    <i name="pawpsdc">   1244.15964037 </i>
    <i name="pawaedc">  -1246.96502025 </i>
    <i name="eentropy">      0.00000000 </i>
    <i name="bandstr">   -205   <time name="dav">   86.66   86.59</time>
   <time name="total">  114.19  114.09</time>
   <energy>
    <i name="e_fr_energy">    -35.64054212 </i>
    <i name="e_wo_entrp">    -35.64054212 </i>
      <time   <time name="dav">   88.43   88.35</time>
   <time name="total">  120.   <time name="dav">   59.83   59.78</time>
   <time name="total">   88.58   88.51</time>
   <energy>
     <time name="dav">   77.23   77.16</time>
   <time   <time name="dav">   85.73   85.66</time>
   <time name="total">  113.72  113.63</time>
   <energy>
    <i name="e_fr_ener   <time name="dav">   58.78   58.73</time>
   <time name="total">   86.94   86.88</time>
   <energy>
     <time name="dav">   84.89   84.82</time>
   <time name="total">  115.06  114.96</time>
   <energy>
    <i name="e_fr_energy">    -35.62311448 </i>
    <i name="e_wo_entrp">    <time name="dav">   49.73   49.69</time>
   <time name="total">   77.88   77.82</time>
   <energy>
     <time name="dav">   50.65   50.61</time>
   <time name="total">   79.68   79.62</time>
   <en   <time name="total">   93.72   93.65</time>
   <energy>
    <i name="e_fr_ener   <time name="dav">   40.59   40.55</time>
   <time name="total">   61.39   6   <time name="dav">   50.   <time name="dav">   54.73   54.69</time>
   <time   <time name="dav">   56.68   56.63</time>
   <time name="total">   76.65   76.59</time>
   <energy>
    <i name="alphaZ">      0.04144063 </i>
    <i name="ewald">    701.56277163 </i>
    <i name="hartreedc">  -1179.32226555 </i>
    <i name="XCdc">     54.28462766 </i>
    <i name="pawpsdc">   1160.35366695 </i>
    <i name="pawaedc">  -1163.05045715 </i>
    <i name="eentropy">      0.00000000 </i>
    <i name="bandstr">   -203.98834149 </i>
    <i name="atom">    596.16534815 </i>
    <i name  <structure>
   <crystal>
    <varray name="basis" >
     <v>      30.0000000  <structure>
   <crystal>  <structure>
   <crystal>
    <varray name="basis"   <structure>
   <crystal>
    <varray name="basis" >
     <v>      30.00000000       0.00000000       0.00000000 </v>
     <v>       0.00000000      30.00000000       0.00000000 </v>
     <v>       0.00000000       0.00000000      30.00000000 </v>
    </varray>
    <i name="volume">  27000.00000000 </i>
    <varray name="rec_basis" >
     <v>       0.03333333       0.00000000       0.00000000 </v>
     <v>       0.00000000       0.03333333       0.00000000 </v>
     <v>       0.00000000       0.00000000       0.03333333 </v>
    </varray>
   </crystal>
   <varray name="positions" >
    <v>       0.47934474       0.46286240       0.49945555 </v>
    <v>       0.46989535       0.51847756       0.47635752 </v>
    <v>       0.47912370       0.51098855       0.53503504 </v>
    <v>       0.48684939       0.49842508       0.50157615 </v>
    <v>       0.54068620       0.49663454       0.47539164 </v>
    <v>       0.54411068       0.51263081       0.51218406 </v>
   </varray>
  </structure>
  <varray name="forces" >
   <v>      -0.00085917      -0.00388365       0.00741809 </v>
   <v>      -0.00460336       0.00633334       0.00361605 </v>
   <v>       0.04864456       0.00378679      -0.00966526 </v>
   <v>      -0.01190471      -0.00332770      -0.00412638 </v>
   <v>       0.04046578       0.03144289       0.04942645 </v>
   <v>      -0.07174310      -0.03435167      -0.04666896 </v>
  </varray>
  <varray name="stress" >
   <v>      -0.05789527      -0.00059814       <energy>
   <i name="e_fr_energy">    -35.64054990 </i>
   <i   <i name="e_fr_energy">    -36.70467479 </i>
   <i name="e_wo_entrp">    -36.70467479 </i>
   <i   <time name="totalsc">  7  <time name="totalsc">  734.79  734.39</time>
 </calculation>
e="totalsc">  7  <time name="totalsc">  7  <time name="totalsc">  7  <time name="totalsc">  734.56  733.99</time>
 </ca  <time name="totalsc">  7  <time name="totalsc">  734.69  734.12</time>
 </ca  <time name="totalsc">  734.54  733.98</time>
 </ca   <time name="dav">   70.94   70.88</time>
   <time name="total">   98.17   9   <time name="dav   <time   <time name="dav   <time name="total">  10   <time name="total">  106.03  105.95</time>
   <energy>
    <i name="alphaZ">      0.04144063 </i>
    <i name="ewald">    674.1   <time name="total">  10   <time name="total">  107.81  107.72</time>
   <energy>
    <i name="alphaZ">      0.041440   <time name="total">  108.46  108.37</time>
   <energy>
    <i name="alphaZ">      0.04144063 </i>
    <i name="ewald">    703.04122289 </i>
    <i name="hartreedc">  -1178.05707113 </i>
    <i name="XCdc">     54.86361908 </i>
    <i name="pawpsdc">   1329.16949277 </i>   <time name="dav">   84.41   84.34</time>
   <time name="total">  111.45  111.37</time>
   <energy>
    <i name="e_fr_energy">    -35.64138921 </i>
    <i name="e_wo_entrp">    -35.64138921 </i>
    <i name="e_0_energy">    -35.6413   <time name="dav">   85.92   85.85</time>
     <time name="dav">   56.78   56.73</time>
   <time   <time name="dav">   76.61   76.55</time>
   <time name="total">  105.12  105.03</time>
   <energy>
    <i name="e_fr_energy">    -35.60612907 </i>
    <i   <time name="dav">   87.56   87.49</time>
   <time name="total">  115.   <time name="dav">   58.57   58.53</time>
   <time   <time name="dav">   83.68   83.61</time>
   <time name="total">  111.70  111.61</time>
   <energy>
    <i name="e_fr_energy">    -35.60632964 </i>
    <i name="e_wo_entrp">    -35.60632964 </i>
    <i name="e_0_energy">    -3   <time name="dav">   42.21   42.18</time>
   <time   <time name="dav">   51.17   51.13</time>
   <time name="total">   79.08   79.02</time>
   <energy>
    <i name="e_fr_energy">    -35.60636755 </i>
    <i   <time name="dav">   66.64   66.58</time>
   <time name="total">   93.   <time name="dav">   49.13   49.09</time>
   <time   <time name="dav">   56.38   56.34</time>
   <time name="total">   76.28   76.22</time>
   <energy>
    <i name="alphaZ">      0.04144063 </i>
    <i name   <time name="dav">   66.33   66.27</time>
   <time name="total">   86.32   86.25</time>
   <energy>
    <i name="alphaZ">      0.04144063 </i>
    <i name="ewald">    702.25975871 </i>
    <i name="hartreedc">  -1179.95130886 </i>
    <i name="XCdc">     54.30991768 </i>
    <i name="pawpsdc">   1166.30298665 </i>
    <i name="pawaedc">  -1169.00258258 </i>
    <i name="eentropy">      0.00000000 </i>
    <i name="bandstr">   -204.07949323 </i>
  <structure>
   <crystal>
    <varray name="basis"   <structure>
   <crystal>
    <varray name="basis" >
     <v>      30.00000000       0.00000000       0.00000000 </v>
     <v>       0.00000000      30.000  <structure>
   <crystal>
    <varray name="basis" >
     <v>      30.00000000       0.00000000       0.00000000 </v>
     <v>       0.00000000      30.00000000       0.00000000 </v>
     <v>       0.00000000       0.00000000      30.00000000 </v>
    </varray>
    <i name="volume">  27000.00000000 </i>
    <varray name="rec_basis" >
     <v>       0.03333333       0.00000000       0.00000000 </v>
     <v>       0.00000000       0.03333333       0.00000000 </v>
     <v>       0.00000000       0.00000000       0.03333333 </v>
    </varray>
   </crystal>
   <varray name="positions" >
    <v>       0.47925010       0.46278962       0.49941318 </v>
    <v>       0.46978663       0.51846437       0.47629122 </v>
    <v>       0.47940956       0.51097782       0.53489630 </v>
    <v>       0.48681666       0.49833186       0.50136895 </v>
    <v>       0.54028120       0.49672006       0.47571959 </v>
    <v>       0.54446592       0.51273522       0.51231072 </v>
   </varray>
  </structure>
  <varray name="forces" >
   <v>      -0.02778160      -0.01420934      -0.00219326 </v>
   <v>      -0.03237220       0.00006103      -0.00816205 </v>
   <v>       0.06418482       0.00107378      -0.02359092 </v>
   <v>      -0.03259095      -0.02125776      -0.03164718 </v>
   <v>      -0.03095056      -0.03981365      -0.09212361 </v>
   <v>       0.05951050       0.07414594       0.15771703 </v>
  </varray>
  <varray name="str  <energy>
   <i name="e_fr_energy">    <i name="e_fr_energy">    -36.70467460 </i>
   <i name="e_wo_entrp">    -36.70467460 </i>
   <i name="e_0_energy">      0.  <time name="totalsc">  7  <time name="totalsc">  7  <time name="totalsc">  7  <time name="totalsc">  750.19  749.62</time>
 </calculation>
e="totalsc">  750.01  749.46</time>
 </calculation>
e="totalsc">  748.82  748.24</time>
 </ca  <time name="totalsc">  748.52  747.97</time>
 </calculation>
95</time>
 </calculation>
e="totalsc">  748.43  747.87</  <time name="totalsc">  7   <time name="dav">   72.53   72.47</time>
   <time name="total">  100.70  100.62</time>
   <en   <time name="total">    <time name="dav">   73.      <time name="   <time name="total">  10   <time name="total">  110.11  110.02</time>
   <energy>
    <i name="alphaZ">      0.04144063 </i>
    <i name="ewald">    692.0   <time name="total">  110.97  110.88</time>
   <energy>
    <i name="alphaZ">      0.04144063 </i>
    <i name="ewald">    674.09042589 </i>
    <i name="hartreedc">  -1154.57128710 </i>
    <i name="XCdc">     54.98361374 </i>
    <i name="pawpsdc">   1376.67669932 </i>
    <i name="pawaedc">  -1379.47884404 </i>
    <i name="eentropy">      0.00   <time name="dav">   79.23   79.16</time>
   <time name="total">  107.02  106.93</time>
   <energy>
     <time name="dav">   79.50   79.43</time>
   <time name="total">  110.16  110.07</time>
   <energy>
    <i na   <time name="total">  112.28  112.45</time>
   <energy>
    <i    <time name="dav">   57.96   57.91</time>
   <time name="total">   83.25   8   <time name="dav">   77.   <time name="dav">   68.98   68.93</time>
   <time name="total">   96.72   96.64</time>
   <energy>
    <i name="e_fr_energy">    -34.29245718    <time name="dav">   80.76      <time name="dav">   52.39   52.35</time>
   <time name="total">   77.55   7   <time name="dav">   71.   <time name="dav   <time name="total">   9   <time name="total">   88.61   88.54</time>
   <energy>
    <i name="e_fr_energy">    -34.29261511    <time name="dav">   85.10   85.03</time>
   <time name="total">  112.77  112.69</time>
   <energy>
    <i    <time name="dav">   44.   <time name="dav">   52.21   52.17</time>
   <time name="total">   80.56   80.72</time>
   <energy>
    <i name="e_fr_energy">    -34.29263766    <time name="dav">   53.42   53.38</time>
   <time name="total">   80.56   80.49</time>
   <energy>
    <i    <time name="dav">   51.   <time name="dav">   51.05   51.00</time>
   <time name="total">   71.72   71.66</time>
   <energy>
    <i name="alphaZ">      0.04144063 </i>
   <time name="dav">   53.20   53.16</time>
   <time name="total">   71.69   71.64</time>
   <energy>
    <i name="alphaZ">      0.04144063 </i>
    <i name="ewald">    698.74011959 </i>
    <i name="hartreedc">  -1174.30703409 </i>
    <i name="XCdc">     54.74398980 </i>
    <i name="pawpsdc">   1304.95713281 </i>
    <i name="pawaedc">  -1307.81069550 </i>
    <i name="eentropy">      0.00000000 </i>
     <structure>
   <crystal>
    <varray name="basis" >
     <v>      30.0000000  <structure>
   <crystal>  <structure>
   <crystal>
    <varray name="basis" >
     <v>      30.00000000       0.00000000       0.00000000 </v>
     <v>       0.00000000   <structure>
   <crystal>
    <varray name="basis" >
     <v>      30.00000000       0.00000000       0.00000000 </v>
     <v>       0.00000000      30.00000000       0.00000000 </v>
     <v>       0.00000000       0.00000000      30.00000000 </v>
    </varray>
    <i name="volume">  27000.00000000 </i>
    <varray name="rec_basis" >
     <v>       0.03333333       0.00000000       0.00000000 </v>
     <v>       0.00000000       0.03333333       0.00000000 </v>
     <v>       0.00000000       0.00000000       0.03333333 </v>
    </varray>
   </crystal>
   <varray name="positions" >
    <v>       0.47079006       0.46473568       0.50471159 </v>
    <v>       0.46214123       0.51880178       0.48191497 </v>
    <v>       0.48447733       0.51310848       0.53702485 </v>
    <v>       0.48444648       0.49882253       0.50320617 </v>
    <v>       0.56864766       0.50496374       0.48534438 </v>
    <v>       0.52950718       0.49958661       0.48779798 </v>
   </varray>
  </structure>
  <varray name="forces" >
   <v>       0.23153708       0.03831436      -0.05903842 </v>
   <v>       0.22834965      -0.00388413      -0.04498899 </v>
   <v>      -0.16353029      -0.05078995      -0.04934127 </v>
   <v>       0.02258298       0.03884064       0.08389730 </v>
   <v>      -0.52107570      -0.18656174      -0.22722919 </v>
   <v>       0.20213629       0.16408082       0.2967  <energy>
   <i name="e_fr_energy">    <i name="e_fr_energy">    <i name="e_fr_energy">    -33.95404374 </i>
   <i name="e_wo_entrp">    -33.95404374 </i>
   <i   <time name="totalsc">  7  <time name="totalsc">  7  <time name="totalsc">  7  <time name="totalsc">  7  <time name="t  <time name="totalsc">  730.41  729.90</time>
 </calculation>
e="totalsc">  730.09  729.84</time>
 </calculation>
69</time>
 </calculation>
e="totalsc">  728.99  728.44</time>
 </ca  <time name="totalsc">  7  <time name="totalsc">  728.78  728.   <time name="dav">   59.60   59.55</time>
   <time name="total">   85.94   85.87</time>
   <energy>
    <i name="alphaZ">      0.04144063 </i>
      <time name="total">   86.21   8   <time name="dav">   78.12   78.10</time>
   <time name="total">  102.11  102.07</time>
   <energy>
    <i name="alphaZ">      0.04144063 </i>
    <i name="ewald">    701.76287174 </i>
    <i name="hartreedc">  -1179.59522946 </i>
    <i name="XCdc">     54.29921097 </i>
    <i name="pawpsdc">   1164.94481574 </i>
    <i name="pawaedc">  -1167.64337985 </i>
    <i name="eentropy">      0.00000000 </i>
    <i name="bandstr">   -203.92913171 </i>
    <i name="atom">    596.16534815 <   <time name="dav">   52.44   52.39</time>
   <time   <time name="dav">   78.31   78.24</time>
   <time name="total">  105.57  105.49</time>
   <energy>
    <i name="e_fr_en   <time name="total">  111.53  111.45</time>
   <en   <time name="total">   95.35   95.28</time>
   <ener   <time name="dav">   51.74   51.70</time>
   <time   <time name="dav">   75.76   75.70</time>
   <time name="total">  104.14  104.06</time>
   <energy>
    <i name="e_fr_energy">    -35.52655045 </i>
    <i   <time name="dav">   85.83   85.76</time>
   <time name="total">  113.   <time name="dav">   62.88   62.83</time>
   <time   <time name="dav">   87.59   87.52</time>
   <time name="total">  116.01  115.92</time>
   <energy>
    <i name="e_fr_energy">    -35.52707174 </i>
    <i name="e_wo_entrp">    -35.52707174 </i>
    <i name="e_0_energy">    -3   <time name="dav">   52.24   52.20</time>
   <time   <time name="dav">   50.74   50.70</time>
   <time name="total">   79.06   79.00</time>
   <energy>
    <i name="e_fr_energy">    -35.52713746 </i>
    <i name="e_wo_entrp">    -35.52713746 </i>
    <i name="e_0_energy">    -35.5271   <time name="dav">   57.42   57.37</time>
     <time name="dav">   56.92   56.87</time>
   <time name="total">   77.42   77.36</time>
   <energy>
    <i name="alphaZ">      0.04144063 </i>
    <i name="ewald">    698.93060998 </i>
    <i name="hartreedc">  -1174.54547864 </i>
    <time name="dav">   56.92   56.87</time>
   <time name="total">   78.98   78.92</time>
   <energy>
    <i name="alphaZ">      0.04144063 </i>
    <i name="ewald">    695.87928941 </i>
    <i name="hartreedc">  -1175.05873305 </i>
    <i name="XCdc">     54.51427961 </i>
    <i name="pawpsdc">   1233.27382075 </i>
    <i name="pawaedc">  -1236.01753571 </i>
    <i name  <structure>
   <crystal>
    <varray name="basis"   <structure>
   <crystal>
    <varray name="basis" >
     <v>      30.00000000       0.00000000       0.00000000 </v>
     <v>       0.00000000      30.00000000       0.00000000 </v>
     <v>       0.00000000       0.00000000      30  <structure>
   <crystal>
    <varray name="basis" >
     <v>      30.00000000       0.00000000       0.00000000 </v>
     <v>       0.00000000      30.00000000       0.00000000 </v>
     <v>       0.00000000       0.00000000      30.00000000 </v>
    </varray>
    <i name="volume">  27000.00000000 </i>
    <varray name="rec_basis" >
     <v>       0.03333333       0.00000000       0.00000000 </v>
     <v>       0.00000000       0.03333333       0.00000000 </v>
     <v>       0.00000000       0.00000000       0.03333333 </v>
    </varray>
   </crystal>
   <varray name="positions" >
    <v>       0.47747440       0.46210708       0.49879965 </v>
    <v>       0.46798502       0.51798824       0.47559609 </v>
    <v>       0.48093535       0.51064140       0.53345142 </v>
    <v>       0.48585861       0.49733565       0.49938432 </v>
    <v>       0.53620808       0.49787298       0.48007790 </v>
    <v>       0.55154859       0.51407359       0.51269059 </v>
   </varray>
  </structure>
  <varray name="forces" >
   <v>      -0.44198648      -0.15959868      -0.15274430 </v>
   <v>      -0.44780505      -0.12442899      -0.16672147 </v>
   <v>       0.30363864      -0.08617106      -0.33251106 </v>
   <v>      -0.23775283      -0.23429878      -0.46186139 </v>
   <v>      -0.91123974       0.30665397       1.10198958 </v>
   <v>       1.7  <energy>
   <i name="e_fr_energy">    -36.68683314 </i>
   <i name="e_wo_entrp">    -36   <i name="e_fr_energy">    -36.33929710 </i>
   <i name="e_wo_entrp">    <time name="totalsc">  730.99  730.73</time>
 </calculation>
e="totalsc">  7  <time name="totalsc">  7  <time name="totalsc">  731.20  730.71</time>
 </ca  <time name="totalsc">  7  <time name="totalsc">  731.01  730.57</time>
 </ca  <time name="totalsc">  729.74  730.67</time>
 </calculation>
e="totalsc">  7  <time name="totalsc">  730.98  730.51</time>
 </ca   <time name="dav">   65.28   65.22</time>
   <time   <time name="dav">   69.00   68.94</time>
   <time name="total">  101.72  101.64</time>
   <energy>
    <i name="alphaZ">      0.04144063 </i>
      <time name="total">  102.12  102.04</time>
   <energy>
    <i name="alphaZ">      0.04144063 </i>
    <i name="ewald">    708.2   <time name="total">  107.41  107.32</time>
   <energy>
    <i name="alphaZ">      0.04144063 </i>
    <i name="ewald">    695.95930844 </i>
    <i name="hartreedc">  -1175.09869999 </i>
    <i name="XCdc">     54.51582942 </i>
    <i name="pawpsdc">   1233.29722412 </i>
    <i name="pawaedc">  -1236.04092825 </i>
    <i name="eentropy"   <time name="dav">   82.38   82.31</time>
   <time name="total">  109.39  109.31</time>
   <energy>
    <i name="e_fr_en   <time name="total">  105.11  105.03</time>
   <energy>
    <i name="e_fr_energy">    -35.43457051 </i>
    <i name="e_wo_entrp">    -35.43457051 </i>
    <   <time name="dav">   82.87   82.81</time>
   <time name="total">  110.08  10   <time name="dav">   85.53   85.47</time>
   <time name="total">  115.16  115.07</time>
   <energy>
    <i name="e_fr_energy">    -35.43304015 </i>
    <i name="e_wo_entrp">    -35.43304015 </i>
    <   <time name="dav">   51.85   51.80</time>
   <time name="total">   78.82   7   <time name="dav">   86.19   86.12</time>
   <time name="total">  114.90  114.82</time>
   <energy>
    <i name="e_fr_energy">    -35.43383470 </i>
    <i name="e_wo_entrp">    -35.43383470 </i>
    <   <time name="dav">   65.61   65.61</time>
   <time name="total">   92.34   9   <time name="dav">   75.80   75.73</time>
   <time name="total">  103.01  102.93</time>
   <energy>
    <i name="e_fr_energy">    -35.43403062 </i>
    <i name="e_wo_entrp">    -35.43403062 </i>
    <   <time name="dav">   48.72   48.68</time>
   <time name="total">   68.84   6   <time name="dav">   64.28   64.23</time>
   <time name="total">   83.94   83.88</time>
   <energy>
    <i name="alphaZ">      0.04144063 </i>
    <i name="ewald">    697.27647078 </i>
    <i name="hartreedc">  -1173.42007184 </i>
    <i name="XCdc">     54.63997065 </i>
    <i name="pawpsdc">   1278.15908712 </i>
    <i name="pawaedc">  -1280.99404790 </i>
    <i name="eentropy">      0.00000000 </i>
    <i name="bandstr">   -207.30230800 </i>
    <i name="atom">    596.16534815 </i>
    <i name="e_fr_energy">    -35.43411041 </i>
    <i name="e_wo_entrp">    -35.43411041  <structure>
   <crystal>
    <varray name="basis" >
     <v>      30.0000000  <structure>
   <crystal>
    <varray name="basis" >
     <v>      30.00000000       0.00000000       0.00000000 </v>
     <v>       0.00000000      30.00000000       0.00000000 </v>
     <v>       0.00000000       0.00000000      30.00000000 </v>
    </varray>
    <i name="volume">  27000.00000000 </i>
    <varray name="rec_basis" >
     <v>       0.03333333       0.00000000       0.00000000 </v>
     <v>       0.00000000       0.03333333       0.00000000 </v>
     <v>       0.00000000       0.00000000       0.03333333 </v>
    </varray>
   </crystal>
   <varray name="positions" >
    <v>       0.46945945       0.46507143       0.50538729 </v>
    <v>       0.46110295       0.51866787       0.48234968 </v>
    <v>       0.48783155       0.51346260       0.53574538 </v>
    <v>       0.48442249       0.49856117       0.50242434 </v>
    <v>       0.56827323       0.50590034       0.48860029 </v>
    <v>       0.52892022       0.49835528       0.48549290 </v>
   </varray>
  </structure>
  <varray name="forces" >
   <v>       0.35770888       0.01891386      -0.07619901 </v>
   <v>       0.31762422       0.04133190      -0.09611861 </v>
   <v>      -0.46104452      -0.05961951       0.04789257 </v>
   <v>      -0.16938624       0.07251360       0.24998804 </v>
   <v>      -1.83471105      -0.54394294      -0.59091312 </v>
   <v>       1.78980871       0.47080308       0.46535012 </v>
  </varray>
  <varray name="stress" >
   <v>      -0.20532231      -0.04598488      -0.04749090 </v>
   <v>      -0.04598488      -0.06686049      -0.00528924 </  <energy>
   <i name="e_f  <energy>
   <i name="e_fr_energy">    -36.70467325 </i>
   <i name="e_wo_entrp">    -36.70467325 </i>
   <i name="e_0_energy">      0.  <time name="totalsc">  7  <time name="totalsc">  7  <time name="totalsc">  7  <time name="totalsc">  767.54  767.05</time>
 </calculation>
98</time>
 </ca  <time name="totalsc">  7  <time name="totalsc">  7  <time name="totalsc">  7  <time name="totalsc">  7  <time name="totalsc">  7  <time name="totalsc">  7  <time name="totalsc">  7  <time name="totalsc">  7   <time name="dav">   66.18   66.13</tim   <time name="dav">   67.19   67.14</time>
   <time name="total">  100.34  100.26</time>
   <en   <time name="total">  101.58  101.50</time>
   <energy>
    <i name="alphaZ">      0   <time name="dav">   79.71   79.65</time>
   <time name="total">  113.25  113.16</time>
   <energy>
    <i name="alphaZ">      0.04144063 </i>
    <i name="ewald">    695.97451789 </i>
    <i name="hartreedc">  -1175.11778013 </i>
    <i name="XCdc">     54.51791608 </i>
    <i name="pawpsdc">   1234.16589325 </i>
    <i name="pawaedc">  -1236.91028833 </i>
    <i name="eentropy">      0.00000000 </i>
    <i name="bandstr">   -203.17644579 <   <time name="dav">   82.88   82.81</tim   <time name="dav">   86.81   86.74</time>
   <time name="total">  115.37  115.28</time>
   <energy>
    <i name="e_fr_energy">    -35.45438859 </i>
    <i name="e_wo_entrp">    -35.45438859 </i>
    <i name="e_0_energy">    -35.45438859    <time name="dav">   82.18   82.11</tim   <time name="dav">   85.31   85.24</time>
   <time name="total">  113.94  113.86</time>
   <energy>
    <i name="e_fr_energy">    -35.45362958 </i>
    <i name="e_wo_entrp">    -35.45362958 </i>
    <i name="e_0_energy">    -35.45362958    <time name="dav">   80.28   80.21</tim   <time name="dav">   76.01   75.95</time>
   <time name="total">  103.95  103.87</time>
   <energy>
    <i name="e_fr_energy">    -35.45366833 </i>
    <i name="e_wo_entrp">    -35.45366833 </i>
    <i name="e_0_energy">    -35.45366833    <time name="dav">   72.49   72.43</tim      <time name="total">   99.32   99.24</t   <time name="total">   87.17   87.10</time>
   <energy>
    <i name="e_fr_energy">    -35.45368039 </i>
    <i name="e_wo_entrp">    -35.45368039 </i>
    <i name="e_0_energy">    -35.45368039    <time name="dav">   61.61   61.56</time>
   <time name="total">   81.11   81.04</time>
   <energy>
    <i name="alphaZ">      0.04144063 </i>
    <i name="ewald">    704.86289315 </i>
    <i name="hartreedc">  -1179.47774920 </i>
    <i name="XCdc">     54.93917716 </i>
    <i name="pawpsdc">   1347.04441473 </i>
    <i name="pawaedc">  -1349.92604240 </i>
    <i name="eentropy">      0.00000000 </i>
    <i name="bandstr">   -209.27918711 </i>
    <i name="atom">    596.16534815 </i>
    <i name="e_fr_energy">    -35.62970488 </i>
    <i name="e_wo_entrp">    -35.62970488 </i>
    <i name="e_0_energy">    -35.62970488 </i>
   </energy>
  </scstep>
  <structure>
   <crystal>
    <varray name="basis" >
     <v>      30.00000000       0.00000000       0.00000000 </v>
     <v>       0.00000000      30.00000000       0.00000000 </v>
     <v>       0.00000000       0.00000000      30.00000000 </v>
    </varray>
    <i name="volume">  27000.00000000 </i>
    <varray name="rec_basis" >
     <v>       0.03333333       0.00000000       0.00000000 </v>
     <v>       0.00000000       0.03333333       0.00000000 </v>
     <v>       0.00000000       0.00000000       0.03333333 </v>
    </varray>
   </crystal>
   <varray name="positions" >
    <v>       0.47017365       0.46904537       0.51271227 </v>
    <v>       0.46565235       0.51504081       0.47528201 </v>
    <v>       0.48123962       0.52432146       0.53201481 </v>
    <v>       0.48445398       0.50149134       0.50360230 </v>
    <v>       0.56819082       0.49341494       0.48417053 </v>
    <v>       0.53029911       0.49669896       0.49221503 </v>
   </varray>
  </structure>
  <varray name="forces" >
   <v>       0.03894945      -0.03787849       0.00592262 </v>
   <v>       0.03098517       0.02039789      -0.04929823 </v>
   <v>      -0.00967122       0.02179008       0.02858145 </v>
   <v>       0.21207622      -0.01993884      -0.04733456 </v>
   <v>       1.51335801      -0.14729172      -0.35795853 </v>
   <v>      -1.78569764       0.16292108       0.42008724 </v>
  </varray>
  <varray name="stress" >
   <v>       0.02766533      -0.00924815      -0.01963321 </v>
   <v>      -0.00924815      -0.05563461       0.00142392 </v>
   <v>      -0.01963321       0.00142392      -0.05094400 </v>
  </varray>
  <energy>
   <i name="e_f  <energy>
   <  <energy>
   <i name="e_fr_energy">    -36.33942724  <energy>
   <i name="e_fr_energy">    -34.59253274 </i>
   <i   <i   <time name="totalsc">  7  <time name="t  <time name="totalsc">  740.50  742.10</time>
 </calculation>
84</time>
 </calculation>
e="totalsc">  7  <time name="totalsc">  7  <time name="totalsc">  739.12  740.82</time>
 </calculation>
e="totalsc">  7  <time name="totalsc">  739.56  740.   <time name="dav">   40.   <time name="dav">   62.   <time name="dav   <time name="total">   8   <time name="total">   9   <time name="total">   90.92   90.85</time>
   <en   <time name="total">   93.05   93.05</time>
   <energy>
    <i name="alphaZ">      0   <time name="dav">   84.05   83.98</time>
   <time name="total">  111.66  111.57</time>
   <energy>
    <i name="alphaZ">      0.04144063 </i>
    <i name="ewald">    703.43544217 </i>
    <i name="hartreedc">  -1178.55543408 </i>
    <i name="XCdc">     54.84875557 </i>
    <i name="pawpsdc">   1324.24275569 </i>
    <i name="pawaedc">  -1327.10763524 </i>
    <i name="eentropy">      0.00000000 </i>
      <time name="dav">   55.   <time name="dav">   86.49   86.42</time>
   <time name="total">  118.82  118.73</time>
   <energy>
    <i name="e_fr_energy">    -35.44553240 </i>
    <i name="e_wo_entrp">    -35.44553240 </i>
    <i name="e_0_energy">    -35.44553240 </i>
   </energ   <time name="dav">   44.   <time name="dav">   87.62   87.55</time>
   <time name="total">  117.17  117.07</time>
   <energy>
    <i name="e_fr_energy">    -35.44490283 </i>
    <i name="e_wo_entrp">    -35.44490283 </i>
    <i name="e_0_energy">    -35.44490283 </i>
   </energy>
  </scstep>
  <scstep>
   <time name="dav">   87.92   87.85</time>
   <time name="total">  116.97  116.87</time>
   <energy>
    <i name="e_fr_energy">    -35.44492037 </i>
    <i name="e_wo_entrp">    -35.44492037 </i>
    <i name="e_0_energy">    -35.44492037 </i>
   </energy>
  </scstep>
  <scstep>
   <time name="dav">   65.81   65.75</time>
   <time name="total">   93.97   93.90</time>
   <energy>
    <i name="e_fr_energy">    -35.44492145 </i>
    <i name="e_wo_entrp">    -35.44492145 </i>
    <i name="e_0_energy">    -35.44492145 </i>
   </energy>
  </scstep>
  <scstep>
   <time name="dav">   67.41   67.36</time>
   <time name="total">   87.01   86.94</time>
   <energy>
    <i name="alphaZ">      0.04144063 </i>
    <i name="ewald">    703.04961260 </i>
    <i name="hartreedc">  -1178.23570600 </i>
    <i name="XCdc">     54.84019872 </i>
    <i name="pawpsdc">   1324.40414983 </i>
    <i name="pawaedc">  -1327.27307959 </i>
    <i name="eentropy">      0.00000000 </i>
    <i name="bandstr">   -208.43690175 </i>
    <i name="atom">    596.16534815 </i>
    <i name="e_fr_energy">    -35.44493742 </i>
    <i name="e_wo_entrp">    -35.44493742 </i>
    <i name="e_0_energy">    -35.44493742 </i>
   </energy>
  </scstep>
  <structure>
   <crystal>
    <varray name="basis" >
     <v>      30.00000000       0.00000000       0.00000000 </v>
     <v>       0.00000000      30.00000000       0.00000000 </v>
     <v>       0.00000000       0.00000000      30.00000000 </v>
    </varray>
    <i name="volume">  27000.00000000 </i>
    <varray name="rec_basis" >
     <v>       0.03333333       0.00000000       0.00000000 </v>
     <v>       0.00000000       0.03333333       0.00000000 </v>
     <v>       0.00000000       0.00000000       0.03333333 </v>
    </varray>
   </crystal>
   <varray name="positions" >
    <v>       0.46950106       0.46518735       0.50557589 </v>
    <v>       0.46123425       0.51860223       0.48218730 </v>
    <v>       0.48776924       0.51371520       0.53559809 </v>
    <v>       0.48436720       0.49863098       0.50247728 </v>
    <v>       0.56769737       0.50551546       0.48854098 </v>
    <v>       0.52944076       0.49836732       0.48562028 </v>
   </varray>
  </structure>
  <varray name="forces" >
   <v>       0.36415597      -0.02532788      -0.07927425 </v>
   <v>       0.31023121       0.06841076      -0.13236159 </v>
   <v>      -0.42565028      -0.02477298       0.11527303 </v>
   <v>       0.23852530       0.04598387       0.03438282 </v>
   <v>       1.53817146       0.07935379      -0.36323741 </v>
   <v>      -2.02543366      -0.14364755       0.42521740 </v>
  </varray>
  <varray name="stress" >
   <v>      -0.01034276      -0.00185391      -0.01362992 </v>
   <v>      -0.00185391      -0.05487383      -0.00125814 </v>
[...]
     <v>       0.00000000       0.03333333       0.00000000 </v>
     <v>       0.00000000       0.00000000       0.03333333 </v>
    </varray>
   </crystal>
   <varray name="positions" >
    <v>       0.46431658       0.47686086       0.51371065 </v>
    <v>       0.47061805       0.51931026       0.47230134 </v>
    <v>       0.48508956       0.53063536       0.52900243 </v>
    <v>       0.48503391       0.50503470       0.50280107 </v>
    <v>       0.56583360       0.47788459       0.48768419 </v>
    <v>       0.52912009       0.49030046       0.49449703 </v>
   </varray>
  </structure>
  <varray name="forces" >
   <v>      -0.00756593      -0.00139964       0.00290287 </v>
   <v>       0.00081051      -0.00098602      -0.00800360 </v>
   <v>       0.00518749       0.00075980       0.00900935 </v>
   <v>      -0.00002901      -0.00073236      -0.00064404 </v>
   <v>       0.00563725       0.000960  <energy>
   <i name="e_fr_energy">    -36.69700618  <energy>
   <i name="e_fr_energy">    -36.43130067 </i>
   <i name="e_wo_entrp">    -36.43130067 </i>
   <i   <time name="totalsc">  683.05  682.59</time>
  <eigenvalues>
   <array>
    <dimension dim="1">band</dimension>
    <dimension dim="2">kpoint</dimension>
    <dimension dim="3">spin</dimension>
    <field>e    <dimension    <field>occ</field>
       <field>eigene</field>
    <field>occ</field>
    <set>
     <set comment="spin 1">
      <set comment="kpoint 1">
       <r>  -22.6470    1.0000 </r>
       <r>  -19.2969    1.0000 </r>
       <r>  -12.6400    1.0000 </r>
       <r>  -11.5551    1.0000 </r>
       <r>  -11.4627    1.0000 </r>
       <r>   -8.6330    1.0000 </r>
       <r>   -8.1190    1.0000 </r>
       <r>   -7.8833    1.0000 </r>
       <r>   -1.4414    0.0000 </r>
       <r>   -0.4363    0.0000 </r>
       <r>   -0.4273    0.0000 </r>
          <r>  -13.0088    1.0000 </r>
       <r>  -11.4780    1.0000 </r>
       <r>  -11.3566    1.0000 </r>
       <r>   -9.0799    1.0000 </r>
       <r>   -8.2866    1.0000 </r>
       <r>   -7.3278    1.0000 </r>
            <r>  -11.4627    1.0000 </r>
       <r>   -8.6330    1.0000 </r>
       <r>   -8.1190    1.0000 </r>
       <r>   -7.8833    1.0000 </r>
       <r>   -1.4414    0.0000 </r>
       <r>   -0.4363    0.0000 </r>
       <r>   -0.4274    0.0000 </r>
       <r>    0.0218    0.0000 </r>
      </set>
      <set comment="kpoint 3">
       <r>  -22.6470    1.0000 </r>
       <r>  -19.2969    1.0000 </r>
       <r>  -12.6400    1.0000 </r>
       <r>  -11.5551    1.0000 </r>
       <r>  -11.4627    1.0000 </r>
       <r>   -8.6330    1.0000 </r>
       <r>   -8.1190    1.0000 </r>
       <r>   -7.8833    1.0000 </r>
       <r>   -1.4414    0.0000 </r>
       <r>   -0.4363    0.0000 </r>
       <r>   -0.4274    0.0000 </r>
       <r>    0.0239    0.0000 </r>
      </set>
      <set comment="kpoint 4">
       <r>  -22.6470    1.0000 </r>
       <r>  -19.2969    1.0000 </r>
       <r>  -12.6400    1.0000 </r>
       <r>  -11.5551    1.0000 </r>
       <r>  -11.4627    1.0000 </r>
       <r>   -8.6330    1.0000 </r>
       <r>   -8.1190    1.0000 </r>
       <r>   -7.8833    1.0000 </r>
       <r>   -1.4414    0.0000 </r>
       <r>   -0.4363    0.0000 </r>
       <r>   -0.4273    0.0000 </r>
       <r>    0.0232    0.0000 </r>
      </set>
     </set>
    </set>
   </array>
  </eigenvalues>
  <separator name="orbital magnetization" >
   <v name="MAGDIPOLOUT">      0.00000000      0.00000000      0.00000000</v>
  </separator>
  <dos>
   <i name="efermi">     -6.95453936 </i>
   <total>
    <array>
     <dimension dim="1">gridpoints</dimension>
     <dimension dim="2">spin</dimension>
     <field>energy</field>
     <field>total</field>
     <field>integrated</field>
     <set>
      <set comment="spin 1">
       <r>   -24.6470     0.0000     0.0000 </r>
       <r>   -24.5581     0.0000     0.0000 </r>
       <r>   -24.4692     0.0000     0.0000 </r>
       <r>   -24.3803     0.0000     0.0000 </r>
       <r>   -24.2914     0.0000       <field>tot       <r>      <field>integrated</field>
     <set>
      <set comment="spin 1">
       <r>   -26.2162     0.0000     0.0000 </r>
       <r>   -26.1221     0.0000     0.0000 </r>
       <r>   -26.0279     0.0000     0.0000 </r>
       <r>   -25.9338     0.0000     0.0000 </r>
       <r>   -25.8396         <r>   -24.0810     0.0000     0.0000 </r>
       <r>   -23.9925     0.0000     0.0000 </r>
       <r>   -23.9041     0.0000     0.0000 </r>
       <r>   -23.8156     0.0000     0.0000 </r>
       <r>   -23.7271     0.0000     0.0000 </r>
       <r>   -23.6386     0.0000     0.0000 </r>
       <r>   -23.5501     0.0000     0.0000 </r>
       <r>   -23.4617     0.0000     0.0000 </r>
       <r>   -23.3732     0.0000     0.0000 </r>
       <r>   -23.2847     0.0000     0.0000 </r>
       <r>   -23.1962     0.0000     0.0000 </r>
       <r>   -23.1078     0.0004     0.0000 </r>
       <r>   -23.0193     0.0047     0.0005 </r>
       <r>   -22.9308     0.0397     0.0040 </r>
       <r>   -22.8423     0.2280     0.0241 </r>
       <r>   -22.7538     0.8942     0.1033 </r>
       <r>   -22.6654     2.3995     0.3156 </r>
       <r>   -22.5769     4.4066     0.7055 </r>
       <r>   -22.4884     5.5398     1.1956 </r>
       <r>   -22.3999     4.7683     1.6175 </r>
       <r>   -22.3114     2.8097     1.8661 </r>
       <r>   -22.2230     1.1332     1.9664 </r>
       <r>   -22.1345     0.3127     1.9940 </r>
       <r>   -22.0460     0.0590     1.9993 </r>
       <r>   -21.9575     0.0076     1.9999 </r>
       <r>   -21.8690     0.0007     2.0000 </r>
       <r>   -21.7806     0.0000     2.0000 </r>
       <r>   -21.6921     0.0000     2.0000 </r>
       <r>   -21.6036     0.0000     2.0000 </r>
       <r>   -21.5151     0.0000     2.0000 </r>
       <r>   -21.4266     0.0000     2.0000 </r>
       <r>   -21.3382     0.0000     2.0000 </r>
       <r>   -21.2497     0.0000     2.0000 </r>
       <r>   -21.1612     0.0000     2.0000 </r>
       <r>   -21.0727     0.0000     2.0000 </r>
       <r>   -20.9842     0.0000     2.0000 </r>
       <r>   -20.8958     0.0000     2.0000 </r>
       <r>   -20.8073     0.0000     2.0000 </r>
       <r>   -20.7188     0.0000     2.0000 </r>
       <r>   -20.6303     0.0000     2.0000 </r>
       <r>   -20.5418     0.0000     2.0000 </r>
       <r>   -20.4534     0.0000     2.0000 </r>
       <r>   -20.3649     0.0000     2.0000 </r>
       <r>   -20.2764     0.0000     2.0000 </r>
       <r>   -20.1879     0.0000     2.0000 </r>
       <r>   -20.0994     0.0000     2.0000 </r>
       <r>   -20.0110     0.0001     2.0000 </r>
       <r>   -19.9225     0.0012     2.0001 </r>
       <r>   -19.8340     0.0129     2.0013 </r>
       <r>   -19.7455     0.0913     2.0093 </r>
       <r>   -19.6571     0.4415     2.0484 </r>
       <r>   -19.5686     1.4601     2.1776 </r>
       <r>   -19.4801     3.3041     2.4699 </r>
       <r>   -19.3916     5.1180     2.9228 </r>
       <r>   -19.3031     5.4274     3.4030 </r>
       <r>   -19.2147     3.9405     3.7516 </r>
       <r>   -19.1262     1.9584     3.9249 </r>
       <r>   -19.0377     0.6661     3.9839 </r>
       <r>   -18.94       <r>   -18.4185     0.0000     4.0000 </r>
       <r>   -18.3300     0.0000     4.0000 </r>
       <r>   -18.2416     0.00       <r>   -18.6838     0.0002     4.0000 </r>
       <r>   -18.5953     0.0000     4.0000 </r>
       <r>   -18.50       <r>   -17.9761     0.0000     4.0000 </r>
       <r>   -17.8876     0.0000     4.0000 </r>
              <r>   -19.6254         <r>   -18.24              <r>   -19.5312     0.0000     2.0000 </r>
       <r>   -19.4371         <r>   -18.0644     0.0000     4.0000 </r>
       <r>   -17.9759     0.0000     4.0000 </r>
       <r>   -17.8875     0.0000     4.0000 </r>
       <r>   -17.7990     0.0000     4.0000 </r>
       <r>   -17.7105     0.0000     4.0000 </r>
       <r>   -17.6220     0.0000     4.0000 </r>
       <r>   -17.5335            <r>   -18.7780     0.0000     2.0000 </r>
       <r>   -18.6838     0.0001     2.0000 </r>
       <r>   -18.5897     0.0024     2.0002 </r>
       <r>   -18.4955     0.0259     2.0027 </r>
       <r>   -18.4014     0.1785     2.0195 </r>
       <r>   -18.3072     0.8006     2.0949 </r>
       <r>   -18.2131     2.3396     2.3152 </r>
       <r>   -18.1189     4.4575     2.7349 </r>
       <r>   -18.0247     5.5393     3.2564 </r>
       <r>   -17.9306     4.4907     3.6792 </r>
       <r>   -17.8364     2.3746     3.9028 </r>
       <r>   -17.7423     0.8187     3.9799 </r>
       <r>   -17.6481     0.1839     3.9972 </r>
       <r>   -17.5540     0.0269     3.9997 </r>
       <r>   -17.4598     0.0026     4.0000 </r>
       <r>   -17.3657     0.0002     4.0000 </r>
       <r>   -17.2715     0.0000     4.0000 </r>
       <r>   -17.1773     0.0000     4.0000 </r>
       <r>   -17.0832     0.0000     4.0000 </r>
       <r>   -16.9890     0.0000     4.0000 </r>
       <r>   -16.8949     0.0000     4.0000 </r>
       <r>   -16.8007     0.0000     4.0000 </r>
       <r>   -16.7066     0.0000     4.0000 </r>
       <r>   -16.6124     0.0000     4.0000 </r>
       <r>   -16.5183     0.0000     4.0000 </r>
       <r>   -16.4241     0.0000     4.0000 </r>
       <r>   -16.3300     0.0000     4.0000 </r>
       <r>   -16.2358     0.0000     4.0000 </r>
       <r>   -16.1416     0.0000     4.0000 </r>
       <r>   -16.0475     0.0000     4.0000 </r>
       <r>   -15.9533     0.0000     4.0000 </r>
       <r>   -15.8592     0.0000     4.0000 </r>
       <r>   -15.7650     0.0000     4.0000 </r>
       <r>   -15.6709     0.0000     4.0000 </r>
       <r>   -15.5767     0.0000     4.0000 </r>
       <r>   -15.4826     0.0000     4.0000 </r>
       <r>   -15.3884     0.0000     4.0000 </r>
       <r>   -15.2942     0.0000     4.0000 </r>
       <r>   -15.2001         <r>   -14.0828     0.0000     4.0000 </r>
       <r>   -13.9944     0.0000     4.0000 </r>
       <r>   -13.9059     0.0000     4.0000 </r>
       <r>   -13.8174     0.0000     4.0000 </r>
       <r>   -13.7289     0.0000     4.0000 </r>
       <r>   -13.6404     0.0000     4.0000 </r>
       <r>   -13.5520     0.0000     4.0000 </r>
       <r>   -13.4635     0.0001     4.0000 </r>
       <r>   -13.3750     0.0013     4.0001 </r>
       <r>   -13.2865     0.0132     4.0013 </r>
       <r>   -13.1980     0.0932     4.0095 </r>
       <r>   -13.1096     0.4486     4.0492 </r>
       <r>   -13.0211     1.4771     4.1799 </r>
       <r>   -12.9326     3.3281     4.4744 </r>
       <r>   -12.8441     5.1326     4.9285 </r>
       <r>   -12.7557     5.4191     5.4080 </r>
       <r>   -12.6672     3.9173     5.7546 </r>
       <r>   -12.5787     1.9384     5.9261 </r>
       <r>   -12.4902     0.6563     5.9842 </r>
       <r>   -12.4017     0.1520     5.9976 </r>
       <r>   -12.3133     0.0241     5.9998 </r>
       <r>   -12.2248     0.0026     6.0000 </r>
       <r>   -12.1363     0.0002     6.0000 </r>
       <r>   -12.0478     0.0009     6.0001 </r>
       <r>   -11.9593     0.0111     6.0011 </r>
       <r>   -11.8709     0.0906     6.0091 </r>
       <r>   -11.7824     0.5067     6.0539 </r>
       <r>   -11.6939     1.9365     6.2253 </r>
       <r>   -11.6054     5.0633     6.6733 </r>
       <r>   -11.5169     9.0606     7.4749 </r>
       <r>   -11.4285    11.0997     8.4570 </r>
       <r>   -11.3400     9.3097     9.2807 </r>
       <r>   -11.2515     5.3456     9.7537 </r>
       <r>   -11.1630     2.1007     9.9396 </r>
       <r>   -11.0745     0.5648     9.9896 </r>
       <r>   -10.9861     0.1038     9.9987 </r>
       <r>   -10.8976     0.0130     9.9999 </r>
       <r>   -10.8091     0.0011    10.0000 </r>
       <r>   -10.7206     0.0001    10.0000 </r>
       <r>   -10.6321     0.0000    10.0000 </r>
       <r>   -10.5437     0.0000    10.0000 </r>
       <r>   -10.4552     0.0000    10.0000 </r>
       <r>   -10.3667     0.0000    10.0000 </r>
       <r>   -10.278       <r>   -10.7230     0.0000    10.0000 </r>
       <r>   -10.6299     0.0000    10.0000 </r>
       <r>   -10.5369     0.0       <r>   -10.0128     0.0000    10.0000 </r>
       <r>    -9.924       <r>   -10.3508     0.0000    10.0000 </r>
       <r>   -10.2577     0.0000    10.0000 </r>
       <r>   -10.1647     0.0000    10.0000 </r>
       <r>   -10.0716     0.0000    10.0000 </r>
       <r>    -9.9786     0.0000    10.0000 </r>
       <r>    -9.8856     0.0000    10.0000 </r>
       <r>    -9.7925     0.0000    10.0000 </r>
       <r>    -9.6995     0.0000    10.0000 </r>
       <r>    -9.6064     0.0000    10.0000 </r>
       <r>    -9.5134     0.0000    10.0000 </r>
       <r>    -9.4203     0.0000    10.0000 </r>
       <r>    -9.3273     0.0000    10.0000 </r>
       <r>    -9.2342     0.0000    10.0000 </r>
       <r>    -9.1412     0.0000    10.0000 </r>
       <r>    -9.0482     0.0000    10.0000 </r>
       <r>    -8.9551     0.0001    10.0000 </r>
       <r>    -8.8621     0.0016    10.0002 </r>
       <r>    -8.7690     0.0196    10.0020 </r>
       <r>    -8.6760     0.1594    10.0168 </r>
       <r>    -8.5829     0.8511    10.0960 </r>
       <r>    -8.4899     2.9884    10.3741 </r>
       <r>    -8.3968     6.9056    11.0166 </r>
       <r>    -8.3038    10.5080    11.9943 </r>
       <r>    -8.2108    10.5318    12.9742 </r>
       <r>    -8.1177     6.9528    13.6211 </r>
       <r>    -8.0247     3.0225    13.9024 </r>
       <r>    -7.9316     0.8647    13.9828 </r>
       <r>    -7.8386     0.1627    13.9980 </r>
       <r>    -7.7455     0.0203    13.9999 </r>
       <r>    -7.6525     0.0048    14.0003 </r>
       <r>    -7.5594     0.0316    14.0032 </r>
       <r>    -7.4664     0.2047    14.0223 </r>
       <r>    -7.3734     0.8743    14.1036 </r>
       <r>    -7.2803     2.4574    14.3323 </r>
       <r>    -7.1873     4.5469    14.7554 </r>
       <r>    -7.0942     5.5410    15.2709 </r>
       <r>    -7.0012     4.4477    15.6847 </r>
       <r>    -6.9081     2.3513    15.9035 </r>
       <r>    -6.8151     0.8183    15.9797 </r>
       <r>    -6.7220     0.1874    15.9971 </r>
       <r>    -6.6290     0.0282    15.9997 </r>
       <r>    -6.5360     0.0028    16.0000 </r>
       <r>    -6.4429     0.0002    16.0000 </r>
       <r>    -6.3499     0.0000    16.0000 </r>
       <r>    -6.2568     0.0000    16.0000 </r>
       <r>    -6.1638     0.0000    16.0000 </r>
       <r>    -6.0707     0.0000    16.0000 </r>
       <r>    -5.9777     0.0000    16.0000 </r>
       <r>    -5.8846     0.0000    16.0000 </r>
       <r>    -5.7916     0.0000    16.0000 </r>
       <r>    -5.6986     0.0000    16.0000 </r>
       <r>    -5.6055     0.0000    16.0000 </r>
       <r>    -5.5125     0.0000    16.0000 </r>
       <r>    -5.4194     0.0000    16.0000 </r>
       <r>    -5.3264     0.0000    16.0000 </r>
       <r>    -5.2333     0.0000    16.0000 </r>
       <r>    -5.1403     0.0000    16.0000 </r>
       <r>    -5.0472     0.0000    16.0000 </r>
       <r>    -4.9542     0.0000    16.0000 </r>
       <r>    -4.8612     0.0000    16.0000 </r>
       <r>    -4.7681     0.0000    16.0000 </r>
       <r>    -4.6751     0.0000    16.0000 </r>
       <r>    -4.5820     0.0000    16.0000 </r>
       <r>    -4.4890     0.0000    16.0000 </r>
       <r>    -4.3959     0.0000    16.0000 </r>
       <r>    -4.3029     0.0000    16.0000 </r>
       <r>    -4.2098     0.0000    16.0000 </r>
       <r>    -4.1168     0.0000    16.0000 </r>
       <r>    -4.0238     0.0000    16.0000 </r>
       <r>    -3.9307     0.0000    16.0000 </r>
       <r>    -3.8377     0.0000    16.0000 </r>
       <r>    -3.7446     0.0000    16.0000 </r>
       <r>    -3.6516     0.0000    16.0000 </r>
       <r>    -3.5585     0.0000    16.0000 </r>
       <r>    -3.4655     0.0000    16.0000 </r>
       <r>    -3.3724     0.0000    16.0000 </r>
       <r>    -3.2794     0.0000    16.0000 </r>
       <r>    -3.1864     0.0000    16.0000 </r>
       <r>    -3.0933     0.0000    16.0000 </r>
       <r>    -3.0003     0.0000    16.0000 </r>
       <r>    -2.9072     0.0000    16.0000 </r>
       <r>    -2.8142     0.0000    16.0000 </r>
       <r>    -2.7211     0.0000    16.0000 </r>
       <r>    -2.6281     0.0000    16.0000 </r>
       <r>    -2.5350     0.0000    16.0000 </r>
       <r>    -2.4420     0.0000    16.0000 </r>
       <r>    -2.3490     0.0000    16.0000 </r>
       <r>    -2.2559     0.0000    16.0000 </r>
       <r>    -2.1629     0.0000    16.0000 </r>
       <r>    -2.0698     0.0000    16.0000 </r>
       <r>    -1.9768     0.0000    16.0000 </r>
       <r>    -1.8837     0.0000    16.0000 </r>
       <r>    -1.7907     0.0000    16.0000 </r>
       <r>    -1.6976     0.0000    16.0000 </r>
       <r>    -1.6046     0.0000    16.0000 </r>
       <r>    -1.5116     0.0000    16.0000 </r>
       <r>    -1.4185     0.0000    16.0000 </r>
       <r>    -1.3255     0.0008    16.0001 </r>
       <r>    -1.2324     0.0102    16.0010 </r>
       <r>    -1.1394     0.0894    16.0093 </r>
       <r>    -1.0463     0.5306    16.0587 </r>
       <r>    -0.9533     2.1489    16.2587 </r>
       <r>    -0.8602     5.9949    16.8165 </r>
       <r>    -0.7672    11.5818    17.8941 </r>
       <r>    -0.6742    15.5050    19.3367 </r>
       <r>    -0.5811    14.3207    20.6692 </r>
       <r>    -0.4881     9.0570    21.5119 </r>
       <r>    -0.3950     3.9127    21.8760 </r>
       <r>    -0.3020     1.3147    21.9983 </r>
       <r>    -0.2089     1.0575    22.0967 </r>
       <r>    -0.1159     2.4238    22.3222 </r>
       <r>    -0.0228     4.4926    22.7402 </r>
       <r>     0.0702     5.5419    23.2559 </r>
       <r>     0.1632     4.5051    23.6750 </r>
       <r>     0.2563     2.4120    23.8995 </r>
       <r>     0.3493     0.8502    23.9786 </r>
       <r>     0.4424     0.1972    23.9969 </r>
       <r>     0.5354     0.0301    23.9997 </r>
       <r>     0.6285     0.0030    24.0000 </r>
       <r>     0.7215     0.0002    24.0000 </r>
       <r>     0.8146     0.0000    24.0000 </r>
       <r>     0.9076     0.0000    24.0000 </r>
       <r>     1.0006     0.0000    24.0000 </r>
       <r>     1.0937     0.0000    24.0000 </r>
       <r>     1.1867     0.0000    24.0000 </r>
       <r>     1.2798     0.0000    24.0000 </r>
       <r>     1.3728     0.0000    24.0000 </r>
       <r>     1.4659     0.0000    24.0000 </r>
       <r>     1.5589     0.0000    24.0000 </r>
       <r>     1.6520     0.0000    24.0000 </r>
       <r>     1.7450     0.0000    24.0000 </r>
       <r>     1.8380     0.0000    24.0000 </r>
       <r>     1.9311     0.0000    24.0000 </r>
       <r>     2.0241     0.0000    24.0000 </r>
      </set>
     </set>
    </array>
   </total>
  </dos>
 </calculation>
 <structure name="finalpos" >
  <crystal>
   <varray name="basis" >
    <v>      30.00000000       0.00000000       0.00000000 </v>
    <v>       0.00000000      30.00000000       0.00000000 </v>
    <v>       0.00000000       0.00000000      30.00000000 </v>
   </varray>
   <i name="volume">  27000.00000000 </i>
   <varray name="rec_basis" >
    <v>       0.03333333       0.00000000       0.00000000 </v>
    <v>       0.00000000       0.03333333       0.00000000 </v>
    <v>       0.00000000       0.00000000       0.03333333 </v>
   </varray>
  </crystal>
  <varray name="positions" >
   <v>       0.46263833       0.47562182       0.50367574 </v>
   <v>       0.47651821       0.52216249       0.46906329 </v>
   <v>       0.47896923       0.52736563       0.52843662 </v>
   <v>       0.48466218       0.50469727       0.50022388 </v>
   <v>       0.56744013       0.47938298       0.49901376 <</modeling>
     0.52979332       0.49081107       0</modeling>
v>
  </varray>
 </structure>
</modeling>
       0.50547903       0.50140924 </v>
</modeling>
 </structure>
</modeling>
 </structure>
</modeling>
