   6   6   0   0
  0.4500000E+04  0.3000000E-08  0.3000000E-08  0.3000000E-08  0.0000000E+00
  1.000000000000000E-004
  CAR 
 unknown system                          
      2.02693450    -25.94953077  301     -6.17913104      1.00000000
    -25.950  0.0000E+00  0.0000E+00
    -25.856  0.0000E+00  0.0000E+00
    -25.763  0.0000E+00  0.0000E+00
    -25.670  0.0000E+00  0.0000E+00
    -25.577  0.0000E+00  0.0000E+00
    -25.483  0.0000E+00  0.0000E+00
    -25.390  0.0000E+00  0.0000E+00
    -25.297  0.0000E+00  0.0000E+00
    -25.203  0.0000E+00  0.0000E+00
    -25.110  0.7937E-17  0.7401E-18
    -25.017  0.1571E-14  0.1473E-15
    -24.924  0.1998E-12  0.1878E-13
    -24.830  0.1656E-10  0.1563E-11
    -24.737  0.8949E-09  0.8502E-10
    -24.644  0.3158E-07  0.3030E-08
    -24.551  0.7283E-06  0.7095E-07
    -24.457  0.1099E-04  0.1096E-05
    -24.364  0.1086E-03  0.1122E-04
    -24.271  0.7033E-03  0.7681E-04
    -24.178  0.2989E-02  0.3556E-03
    -24.084  0.8345E-02  0.1134E-02
    -23.991  0.1531E-01  0.2561E-02
    -23.898  0.1846E-01  0.4283E-02
    -23.805  0.1464E-01  0.5648E-02
    -23.711  0.7630E-02  0.6359E-02
    -23.618  0.2613E-02  0.6603E-02
    -23.525  0.5878E-03  0.6658E-02
    -23.432  0.8675E-04  0.6666E-02
    -23.338  0.8392E-05  0.6667E-02
    -23.245  0.5316E-06  0.6667E-02
    -23.152  0.2203E-07  0.6667E-02
    -23.059  0.5964E-09  0.6667E-02
    -22.965  0.1054E-10  0.6667E-02
    -22.872  0.1215E-12  0.6667E-02
    -22.779  0.9207E-15  0.6667E-02
    -22.686  0.0000E+00  0.6667E-02
    -22.592  0.0000E+00  0.6667E-02
    -22.499  0.0000E+00  0.6667E-02
    -22.406  0.0000E+00  0.6667E-02
    -22.313  0.0000E+00  0.6667E-02
    -22.219  0.0000E+00  0.6667E-02
    -22.126  0.0000E+00  0.6667E-02
    -22.033  0.0000E+00  0.6667E-02
    -21.940  0.0000E+00  0.6667E-02
    -21.846  0.0000E+00  0.6667E-02
    -21.753  0.0000E+00  0.6667E-02
    -21.660  0.0000E+00  0.6667E-02
    -21.567  0.0000E+00  0.6667E-02
    -21.473  0.0000E+00  0.6667E-02
    -21.380  0.0000E+00  0.6667E-02
    -21.287  0.0000E+00  0.6667E-02
    -21.194  0.0000E+00  0.6667E-02
    -21.100  0.0000E+00  0.6667E-02
    -21.007  0.0000E+00  0.6667E-02
    -20.914  0.0000E+00  0.6667E-02
    -20.821  0.0000E+00  0.6667E-02
    -20.727  0.0000E+00  0.6667E-02
    -20.634  0.0000E+00  0.6667E-02
    -20.541  0.0000E+00  0.6667E-02
    -20.447  0.0000E+00  0.6667E-02
    -20.354  0.3968E-17  0.6667E-02
    -20.261  0.4564E-15  0.6667E-02
    -20.168  0.6454E-13  0.6667E-02
    -20.074  0.5929E-11  0.6667E-02
    -19.981  0.3553E-09  0.6667E-02
    -19.888  0.1389E-07  0.6667E-02
    -19.795  0.3551E-06  0.6667E-02
    -19.701  0.5934E-05  0.6667E-02
    -19.608  0.6493E-04  0.6673E-02
    -19.515  0.4657E-03  0.6717E-02
    -19.422  0.2191E-02  0.6921E-02
    -19.328  0.6769E-02  0.7552E-02
    -19.235  0.1374E-01  0.8834E-02
    -19.142  0.1833E-01  0.1054E-01
    -19.049  0.1609E-01  0.1204E-01
    -18.955  0.9278E-02  0.1291E-01
    -18.862  0.3517E-02  0.1324E-01
    -18.769  0.8757E-03  0.1332E-01
    -18.676  0.1431E-03  0.1333E-01
    -18.582  0.1533E-04  0.1333E-01
    -18.489  0.1076E-05  0.1333E-01
    -18.396  0.4938E-07  0.1333E-01
    -18.303  0.1482E-08  0.1333E-01
    -18.209  0.2903E-10  0.1333E-01
    -18.116  0.3711E-12  0.1333E-01
    -18.023  0.3095E-14  0.1333E-01
    -17.930  0.1587E-16  0.1333E-01
    -17.836  0.0000E+00  0.1333E-01
    -17.743  0.0000E+00  0.1333E-01
    -17.650  0.0000E+00  0.1333E-01
    -17.557  0.0000E+00  0.1333E-01
    -17.463  0.0000E+00  0.1333E-01
    -17.370  0.0000E+00  0.1333E-01
    -17.277  0.0000E+00  0.1333E-01
    -17.184  0.0000E+00  0.1333E-01
    -17.090  0.0000E+00  0.1333E-01
    -16.997  0.0000E+00  0.1333E-01
    -16.904  0.0000E+00  0.1333E-01
    -16.811  0.0000E+00  0.1333E-01
    -16.717  0.0000E+00  0.1333E-01
    -16.624  0.0000E+00  0.1333E-01
    -16.531  0.0000E+00  0.1333E-01
    -16.438  0.0000E+00  0.1333E-01
    -16.344  0.0000E+00  0.1333E-01
    -16.251  0.0000E+00  0.1333E-01
    -16.158  0.0000E+00  0.1333E-01
    -16.065  0.0000E+00  0.1333E-01
    -15.971  0.0000E+00  0.1333E-01
    -15.878  0.0000E+00  0.1333E-01
    -15.785  0.0000E+00  0.1333E-01
    -15.691  0.0000E+00  0.1333E-01
    -15.598  0.0000E+00  0.1333E-01
    -15.505  0.0000E+00  0.1333E-01
    -15.412  0.0000E+00  0.1333E-01
    -15.318  0.0000E+00  0.1333E-01
    -15.225  0.0000E+00  0.1333E-01
    -15.132  0.0000E+00  0.1333E-01
    -15.039  0.0000E+00  0.1333E-01
    -14.945  0.3968E-17  0.1333E-01
    -14.852  0.5318E-15  0.1333E-01
    -14.759  0.7419E-13  0.1333E-01
    -14.666  0.6731E-11  0.1333E-01
    -14.572  0.3983E-09  0.1333E-01
    -14.479  0.1538E-07  0.1333E-01
    -14.386  0.3882E-06  0.1333E-01
    -14.293  0.6407E-05  0.1333E-01
    -14.199  0.6924E-04  0.1334E-01
    -14.106  0.4904E-03  0.1339E-01
    -14.013  0.2279E-02  0.1360E-01
    -13.920  0.6953E-02  0.1425E-01
    -13.826  0.1394E-01  0.1555E-01
    -13.733  0.1837E-01  0.1726E-01
    -13.640  0.1592E-01  0.1875E-01
    -13.547  0.9071E-02  0.1959E-01
    -13.453  0.3396E-02  0.1991E-01
    -13.360  0.8351E-03  0.1999E-01
    -13.267  0.1348E-03  0.2000E-01
    -13.174  0.1426E-04  0.2000E-01
    -13.080  0.9881E-06  0.2000E-01
    -12.987  0.4480E-07  0.2000E-01
    -12.894  0.1328E-08  0.2000E-01
    -12.801  0.2586E-10  0.2000E-01
    -12.707  0.1527E-10  0.2000E-01
    -12.614  0.8390E-09  0.2000E-01
    -12.521  0.3090E-07  0.2000E-01
    -12.428  0.7486E-06  0.2000E-01
    -12.334  0.1195E-04  0.2000E-01
    -12.241  0.1261E-03  0.2001E-01
    -12.148  0.8812E-03  0.2010E-01
    -12.055  0.4088E-02  0.2048E-01
    -11.961  0.1262E-01  0.2165E-01
    -11.868  0.2597E-01  0.2408E-01
    -11.775  0.3567E-01  0.2740E-01
    -11.682  0.3271E-01  0.3045E-01
    -11.588  0.2003E-01  0.3232E-01
    -11.495  0.8181E-02  0.3308E-01
    -11.402  0.2226E-02  0.3329E-01
    -11.309  0.4026E-03  0.3333E-01
    -11.215  0.4830E-04  0.3333E-01
    -11.122  0.3834E-05  0.3333E-01
    -11.029  0.2009E-06  0.3333E-01
    -10.935  0.6930E-08  0.3333E-01
    -10.842  0.1571E-09  0.3333E-01
    -10.749  0.2335E-11  0.3333E-01
    -10.656  0.2272E-13  0.3333E-01
    -10.562  0.1429E-15  0.3333E-01
    -10.469  0.0000E+00  0.3333E-01
    -10.376  0.0000E+00  0.3333E-01
    -10.283  0.0000E+00  0.3333E-01
    -10.189  0.0000E+00  0.3333E-01
    -10.096  0.0000E+00  0.3333E-01
    -10.003  0.0000E+00  0.3333E-01
     -9.910  0.0000E+00  0.3333E-01
     -9.816  0.0000E+00  0.3333E-01
     -9.723  0.0000E+00  0.3333E-01
     -9.630  0.0000E+00  0.3333E-01
     -9.537  0.6746E-16  0.3333E-01
     -9.443  0.1090E-13  0.3333E-01
     -9.350  0.1173E-11  0.3333E-01
     -9.257  0.8233E-10  0.3333E-01
     -9.164  0.3773E-08  0.3333E-01
     -9.070  0.1130E-06  0.3333E-01
     -8.977  0.2217E-05  0.3333E-01
     -8.884  0.2855E-04  0.3334E-01
     -8.791  0.2424E-03  0.3336E-01
     -8.697  0.1366E-02  0.3349E-01
     -8.604  0.5165E-02  0.3397E-01
     -8.511  0.1335E-01  0.3521E-01
     -8.418  0.2418E-01  0.3747E-01
     -8.324  0.3159E-01  0.4041E-01
     -8.231  0.3030E-01  0.4324E-01
     -8.138  0.2128E-01  0.4522E-01
     -8.045  0.1069E-01  0.4622E-01
     -7.951  0.3738E-02  0.4657E-01
     -7.858  0.8881E-03  0.4665E-01
     -7.765  0.1415E-03  0.4667E-01
     -7.672  0.2149E-04  0.4667E-01
     -7.578  0.7244E-04  0.4667E-01
     -7.485  0.5028E-03  0.4672E-01
     -7.392  0.2322E-02  0.4694E-01
     -7.299  0.7044E-02  0.4759E-01
     -7.205  0.1404E-01  0.4890E-01
     -7.112  0.1839E-01  0.5062E-01
     -7.019  0.1584E-01  0.5210E-01
     -6.926  0.8971E-02  0.5293E-01
     -6.832  0.3339E-02  0.5324E-01
     -6.739  0.8160E-03  0.5332E-01
     -6.646  0.1309E-03  0.5333E-01
     -6.553  0.1377E-04  0.5333E-01
     -6.459  0.9481E-06  0.5333E-01
     -6.366  0.4273E-07  0.5333E-01
     -6.273  0.1258E-08  0.5333E-01
     -6.179  0.2420E-10  0.5333E-01
     -6.086  0.3036E-12  0.5333E-01
     -5.993  0.2476E-14  0.5333E-01
     -5.900  0.1587E-16  0.5333E-01
     -5.806  0.0000E+00  0.5333E-01
     -5.713  0.0000E+00  0.5333E-01
     -5.620  0.0000E+00  0.5333E-01
     -5.527  0.0000E+00  0.5333E-01
     -5.433  0.0000E+00  0.5333E-01
     -5.340  0.0000E+00  0.5333E-01
     -5.247  0.0000E+00  0.5333E-01
     -5.154  0.0000E+00  0.5333E-01
     -5.060  0.0000E+00  0.5333E-01
     -4.967  0.0000E+00  0.5333E-01
     -4.874  0.0000E+00  0.5333E-01
     -4.781  0.0000E+00  0.5333E-01
     -4.687  0.0000E+00  0.5333E-01
     -4.594  0.0000E+00  0.5333E-01
     -4.501  0.0000E+00  0.5333E-01
     -4.408  0.0000E+00  0.5333E-01
     -4.314  0.0000E+00  0.5333E-01
     -4.221  0.0000E+00  0.5333E-01
     -4.128  0.0000E+00  0.5333E-01
     -4.035  0.0000E+00  0.5333E-01
     -3.941  0.0000E+00  0.5333E-01
     -3.848  0.0000E+00  0.5333E-01
     -3.755  0.0000E+00  0.5333E-01
     -3.662  0.0000E+00  0.5333E-01
     -3.568  0.0000E+00  0.5333E-01
     -3.475  0.0000E+00  0.5333E-01
     -3.382  0.0000E+00  0.5333E-01
     -3.289  0.0000E+00  0.5333E-01
     -3.195  0.0000E+00  0.5333E-01
     -3.102  0.0000E+00  0.5333E-01
     -3.009  0.0000E+00  0.5333E-01
     -2.916  0.0000E+00  0.5333E-01
     -2.822  0.0000E+00  0.5333E-01
     -2.729  0.0000E+00  0.5333E-01
     -2.636  0.0000E+00  0.5333E-01
     -2.543  0.0000E+00  0.5333E-01
     -2.449  0.0000E+00  0.5333E-01
     -2.356  0.1587E-16  0.5333E-01
     -2.263  0.3231E-14  0.5333E-01
     -2.170  0.3862E-12  0.5333E-01
     -2.076  0.3010E-10  0.5333E-01
     -1.983  0.1530E-08  0.5333E-01
     -1.890  0.5081E-07  0.5333E-01
     -1.797  0.1103E-05  0.5333E-01
     -1.703  0.1566E-04  0.5333E-01
     -1.610  0.1456E-03  0.5335E-01
     -1.517  0.8879E-03  0.5343E-01
     -1.423  0.3553E-02  0.5376E-01
     -1.330  0.9340E-02  0.5463E-01
     -1.237  0.1614E-01  0.5614E-01
     -1.144  0.1841E-01  0.5786E-01
     -1.050  0.1428E-01  0.5919E-01
     -0.957  0.9425E-02  0.6007E-01
     -0.864  0.1031E-01  0.6103E-01
     -0.771  0.1731E-01  0.6264E-01
     -0.677  0.2521E-01  0.6499E-01
     -0.584  0.2890E-01  0.6769E-01
     -0.491  0.2660E-01  0.7017E-01
     -0.398  0.1920E-01  0.7196E-01
     -0.304  0.1066E-01  0.7295E-01
     -0.211  0.6322E-02  0.7354E-01
     -0.118  0.8587E-02  0.7435E-01
     -0.025  0.1484E-01  0.7573E-01
      0.069  0.1848E-01  0.7745E-01
      0.162  0.1526E-01  0.7887E-01
      0.255  0.8292E-02  0.7965E-01
      0.348  0.2961E-02  0.7992E-01
      0.442  0.6943E-03  0.7999E-01
      0.535  0.1068E-03  0.8000E-01
      0.628  0.1078E-04  0.8000E-01
      0.721  0.7120E-06  0.8000E-01
      0.815  0.3077E-07  0.8000E-01
      0.908  0.8693E-09  0.8000E-01
      1.001  0.1603E-10  0.8000E-01
      1.094  0.1928E-12  0.8000E-01
      1.188  0.1514E-14  0.8000E-01
      1.281  0.7937E-17  0.8000E-01
      1.374  0.0000E+00  0.8000E-01
      1.467  0.0000E+00  0.8000E-01
      1.561  0.0000E+00  0.8000E-01
      1.654  0.0000E+00  0.8000E-01
      1.747  0.0000E+00  0.8000E-01
      1.840  0.0000E+00  0.8000E-01
      1.934  0.0000E+00  0.8000E-01
      2.027  0.0000E+00  0.8000E-01
