    6    6  300    1
  0.4500000E+04  0.3000000E-08  0.3000000E-08  0.3000000E-08  0.0000000E+00
  1.000000000000000E-004
  CAR 
 unknown system                          
     16      4     12
 
  0.2500000E+00  0.2500000E+00  0.2500000E+00  0.2500000E+00
    1      -23.949530   1.000000
    2      -19.171025   1.000000
    3      -13.764993   1.000000
    4      -11.822519   1.000000
    5      -11.767035   1.000000
    6       -8.412248   1.000000
    7       -8.261837   1.000000
    8       -7.145230   1.000000
    9       -1.208705   0.000000
   10       -0.720029   0.000000
   11       -0.518751   0.000000
   12        0.024835   0.000000
 
 -0.2500000E+00  0.2500000E+00  0.2500000E+00  0.2500000E+00
    1      -23.949530   1.000000
    2      -19.171028   1.000000
    3      -13.764993   1.000000
    4      -11.822524   1.000000
    5      -11.767038   1.000000
    6       -8.412247   1.000000
    7       -8.261834   1.000000
    8       -7.145236   1.000000
    9       -1.208694   0.000000
   10       -0.720025   0.000000
   11       -0.518743   0.000000
   12        0.026934   0.000000
 
  0.2500000E+00 -0.2500000E+00  0.2500000E+00  0.2500000E+00
    1      -23.949531   1.000000
    2      -19.171024   1.000000
    3      -13.764992   1.000000
    4      -11.822530   1.000000
    5      -11.767041   1.000000
    6       -8.412246   1.000000
    7       -8.261843   1.000000
    8       -7.145230   1.000000
    9       -1.208691   0.000000
   10       -0.720030   0.000000
   11       -0.518742   0.000000
   12        0.026418   0.000000
 
 -0.2500000E+00 -0.2500000E+00  0.2500000E+00  0.2500000E+00
    1      -23.949531   1.000000
    2      -19.171025   1.000000
    3      -13.764992   1.000000
    4      -11.822529   1.000000
    5      -11.767040   1.000000
    6       -8.412247   1.000000
    7       -8.261848   1.000000
    8       -7.145231   1.000000
    9       -1.208691   0.000000
   10       -0.720033   0.000000
   11       -0.518742   0.000000
   12        0.026629   0.000000
