 vasp.5.4.1 24Jun15 (build Jan 13 2020 12:58:22) complex                        
  
 executed on           IFC91_ompi date 2020.02.03  02:42:24
 running on   15 total cores
 each image running on    1 cores
 distrk:  each k-point on    1 cores,    1 groups
 distr:  one band on NCORES_PER_BAND=   1 cores,    1 groups


--------------------------------------------------------------------------------------------------------


 INCAR:
 POTCAR:    PAW_PBE H 15Jun2001                   
 POTCAR:    PAW_PBE C 08Apr2002                   
 POTCAR:    PAW_PBE N 08Apr2002                   
 POTCAR:    PAW_PBE H 15Jun2001                   
   VRHFIN =H: ultrasoft test                                                    
   LEXCH  = PE                                                                  
   EATOM  =    12.4884 eV,    0.9179 Ry                                         
                                                                                
   TITEL  = PAW_PBE H 15Jun2001                                                 
   LULTRA =        F    use ultrasoft PP ?                                      
   IUNSCR =        0    unscreen: 0-lin 1-nonlin 2-no                           
   RPACOR =    0.000    partial core radius                                     
   POMASS =    1.000; ZVAL   =    1.000    mass and valenz                      
   RCORE  =    1.100    outmost cutoff radius                                   
   RWIGS  =    0.700; RWIGS  =    0.370    wigner-seitz radius (au A)           
   ENMAX  =  250.000; ENMIN  =  200.000 eV                                      
   RCLOC  =    0.701    cutoff for local pot                                    
   LCOR   =        T    correct aug charges                                     
   LPAW   =        T    paw PP                                                  
   EAUG   =  400.000                                                            
   RMAX   =    1.123    core radius for proj-oper                               
   RAUG   =    1.200    factor for augmentation sphere                          
   RDEP   =    1.112    radius for radial grids                                 
   RDEPT  =    0.926    core radius for aug-charge                              
                                                                                
   Atomic configuration                                                         
    2 entries                                                                   
     n  l   j            E        occ.                                          
     1  0  0.50        -6.4927   1.0000                                         
     2  1  0.50        -3.4015   0.0000                                         
   Description                                                                  
     l       E           TYP  RCUT    TYP  RCUT                                 
     0     -6.4927494     23  1.100                                             
     0      6.8029130     23  1.100                                             
     1     -4.0817478     23  1.100                                             
  local pseudopotential read in
  atomic valenz-charges read in
  non local Contribution for L=           0  read in
    real space projection operators read in
  non local Contribution for L=           0  read in
    real space projection operators read in
  non local Contribution for L=           1  read in
    real space projection operators read in
    PAW grid and wavefunctions read in
 
   number of l-projection  operators is LMAX  =           3
   number of lm-projection operators is LMMAX =           5
 
 POTCAR:    PAW_PBE C 08Apr2002                   
   VRHFIN =C: s2p2                                                              
   LEXCH  = PE                                                                  
   EATOM  =   147.1560 eV,   10.8157 Ry                                         
                                                                                
   TITEL  = PAW_PBE C 08Apr2002                                                 
   LULTRA =        F    use ultrasoft PP ?                                      
   IUNSCR =        1    unscreen: 0-lin 1-nonlin 2-no                           
   RPACOR =    1.200    partial core radius                                     
   POMASS =   12.011; ZVAL   =    4.000    mass and valenz                      
   RCORE  =    1.500    outmost cutoff radius                                   
   RWIGS  =    1.630; RWIGS  =    0.863    wigner-seitz radius (au A)           
   ENMAX  =  400.000; ENMIN  =  300.000 eV                                      
   ICORE  =        2    local potential                                         
   LCOR   =        T    correct aug charges                                     
   LPAW   =        T    paw PP                                                  
   EAUG   =  644.873                                                            
   DEXC   =    0.000                                                            
   RMAX   =    1.529    core radius for proj-oper                               
   RAUG   =    1.300    factor for augmentation sphere                          
   RDEP   =    1.501    radius for radial grids                                 
   RDEPT  =    1.300    core radius for aug-charge                              
                                                                                
   Atomic configuration                                                         
    4 entries                                                                   
     n  l   j            E        occ.                                          
     1  0  0.50      -273.3789   2.0000                                         
     2  0  0.50       -13.7508   2.0000                                         
     2  1  0.50        -5.2854   2.0000                                         
     3  2  1.50        -5.4423   0.0000                                         
   Description                                                                  
     l       E           TYP  RCUT    TYP  RCUT                                 
     0    -13.7508458     23  1.200                                             
     0     -8.2022199     23  1.200                                             
     1     -5.2854383     23  1.500                                             
     1     34.0145650     23  1.500                                             
     2     -5.4423304      7  1.500                                             
  local pseudopotential read in
  partial core-charges read in
  partial kinetic energy density read in
  atomic valenz-charges read in
  non local Contribution for L=           0  read in
    real space projection operators read in
  non local Contribution for L=           0  read in
    real space projection operators read in
  non local Contribution for L=           1  read in
    real space projection operators read in
  non local Contribution for L=           1  read in
    real space projection operators read in
    PAW grid and wavefunctions read in
 
   number of l-projection  operators is LMAX  =           4
   number of lm-projection operators is LMMAX =           8
 
 POTCAR:    PAW_PBE N 08Apr2002                   
   VRHFIN =N: s2p3                                                              
   LEXCH  = PE                                                                  
   EATOM  =   264.5486 eV,   19.4438 Ry                                         
                                                                                
   TITEL  = PAW_PBE N 08Apr2002                                                 
   LULTRA =        F    use ultrasoft PP ?                                      
   IUNSCR =        1    unscreen: 0-lin 1-nonlin 2-no                           
   RPACOR =    1.200    partial core radius                                     
   POMASS =   14.001; ZVAL   =    5.000    mass and valenz                      
   RCORE  =    1.500    outmost cutoff radius                                   
   RWIGS  =    1.400; RWIGS  =    0.741    wigner-seitz radius (au A)           
   ENMAX  =  400.000; ENMIN  =  300.000 eV                                      
   ICORE  =        2    local potential                                         
   LCOR   =        T    correct aug charges                                     
   LPAW   =        T    paw PP                                                  
   EAUG   =  627.112                                                            
   DEXC   =    0.000                                                            
   RMAX   =    1.529    core radius for proj-oper                               
   RAUG   =    1.300    factor for augmentation sphere                          
   RDEP   =    1.514    radius for radial grids                                 
   RDEPT  =    1.338    core radius for aug-charge                              
                                                                                
   Atomic configuration                                                         
    4 entries                                                                   
     n  l   j            E        occ.                                          
     1  0  0.50      -384.7179   2.0000                                         
     2  0  0.50       -18.5828   2.0000                                         
     2  1  0.50        -7.0898   3.0000                                         
     3  2  1.50        -6.8029   0.0000                                         
   Description                                                                  
     l       E           TYP  RCUT    TYP  RCUT                                 
     0    -18.5828119     23  1.200                                             
     0    -13.5018863     23  1.200                                             
     1     -7.0897853     23  1.500                                             
     1      9.5240782     23  1.500                                             
     2     -6.8029130      7  1.500                                             
  local pseudopotential read in
  partial core-charges read in
  partial kinetic energy density read in
  atomic valenz-charges read in
  non local Contribution for L=           0  read in
    real space projection operators read in
  non local Contribution for L=           0  read in
    real space projection operators read in
  non local Contribution for L=           1  read in
    real space projection operators read in
  non local Contribution for L=           1  read in
    real space projection operators read in
    PAW grid and wavefunctions read in
 
   number of l-projection  operators is LMAX  =           4
   number of lm-projection operators is LMMAX =           8
 

 ----------------------------------------------------------------------------- 
|                                                                             |
|  ADVICE TO THIS USER RUNNING 'VASP/VAMP'   (HEAR YOUR MASTER'S VOICE ...):  |
|                                                                             |
|      You have a (more or less) 'small supercell' and for smaller cells      |
|      it is recommended  to use the reciprocal-space projection scheme!      |
|      The real space optimization is not  efficient for small cells and it   |
|      is also less accurate ...                                              |
|      Therefore set LREAL=.FALSE. in the  INCAR file                         |
|                                                                             |
 ----------------------------------------------------------------------------- 

 Optimization of the real space projectors (new method)

 maximal supplied QI-value         = 34.20
 optimisation between [QCUT,QGAM] = [  9.92, 20.18] = [ 27.55,114.04] Ry 
 Optimized for a Real-space Cutoff    1.26 Angstroem

   l    n(q)    QCUT    max X(q) W(low)/X(q) W(high)/X(q)  e(spline) 
   0      8     9.919    19.460    0.50E-03    0.23E-03    0.29E-06
   0      8     9.919    12.209    0.48E-03    0.23E-03    0.28E-06
   1      7     9.919     4.655    0.17E-03    0.75E-03    0.30E-06
 Optimization of the real space projectors (new method)

 maximal supplied QI-value         = 25.13
 optimisation between [QCUT,QGAM] = [ 10.05, 20.36] = [ 28.30,116.06] Ry 
 Optimized for a Real-space Cutoff    1.30 Angstroem

   l    n(q)    QCUT    max X(q) W(low)/X(q) W(high)/X(q)  e(spline) 
   0      8    10.053   115.676    0.49E-03    0.72E-03    0.18E-06
   0      8    10.053    87.132    0.49E-03    0.71E-03    0.18E-06
   1      7    10.053     4.429    0.32E-03    0.31E-03    0.18E-06
   1      7    10.053     2.733    0.23E-03    0.19E-03    0.20E-06
 Optimization of the real space projectors (new method)

 maximal supplied QI-value         = 25.13
 optimisation between [QCUT,QGAM] = [ 10.05, 20.36] = [ 28.30,116.06] Ry 
 Optimized for a Real-space Cutoff    1.65 Angstroem

   l    n(q)    QCUT    max X(q) W(low)/X(q) W(high)/X(q)  e(spline) 
   0     10    10.053    79.467    0.76E-04    0.72E-04    0.56E-06
   0     10    10.053    66.151    0.76E-04    0.72E-04    0.55E-06
   1     10    10.053     8.350    0.25E-03    0.92E-03    0.41E-05
   1     10    10.053     5.531    0.27E-03    0.10E-02    0.45E-05
  PAW_PBE H 15Jun2001                   :
 energy of atom  1       EATOM=  -12.4884
 kinetic energy error for atom=    0.0098 (will be added to EATOM!!)
  PAW_PBE C 08Apr2002                   :
 energy of atom  2       EATOM= -147.1560
 kinetic energy error for atom=    0.0288 (will be added to EATOM!!)
  PAW_PBE N 08Apr2002                   :
 energy of atom  3       EATOM= -264.5486
 kinetic energy error for atom=    0.0736 (will be added to EATOM!!)
 
 
 POSCAR: H3 C2 N1                                
  positions in direct lattice
  velocities in cartesian coordinates
 exchange correlation table for  LEXCH =        8
   RHO(1)=    0.500       N(1)  =     2000
   RHO(2)=  100.500       N(2)  =     4000

 VTST: version 3.2, (02/03/18)

 CHAIN: initializing optimizer
 
 OPT: Using FIRE optimizer
 OPT: FIRE, Init
 OPT: FIRE, MAXMOVE       0.20000
 OPT: FIRE, TIMESTEP      0.10000
 OPT: FIRE, FTIMEMAX      1.00000
 OPT: FIRE, FTIMEINC      1.10000
 OPT: FIRE, FTIMEDEC      0.50000
 OPT: FIRE, FALPHADEC     0.99000
 OPT: FIRE, FALPHA        0.10000
 OPT: FIRE, FNMIN         5
 
 CHAIN: Read ICHAIN            0
 CHAIN: Running the NEB
 NEB:          SPRING     -5.000000
 NEB:          LCLIMB      T
 NEB:     LTANGENTOLD      F
 NEB:           LDNEB      F
 NEB:        LDNEBORG      F
 NEB:        LNEBCELL      F
 NEB:          EFIRST      0.000000
 NEB:           ELAST      0.000000
 
 POSCAR: H3 C2 N1                                
  positions in direct lattice
  No initial velocities read in
 
 POSCAR: H3 C2 N1                                
  positions in direct lattice
  No initial velocities read in
 


--------------------------------------------------------------------------------------------------------


 ion  position               nearest neighbor table
   1  0.471  0.469  0.509-   4 1.10
   2  0.474  0.512  0.468-   4 1.10
   3  0.469  0.526  0.525-   4 1.10
   4  0.484  0.502  0.502-   1 1.10   2 1.10   3 1.10   6 1.42
   5  0.567  0.490  0.492-   6 1.18
   6  0.531  0.501  0.503-   5 1.18   4 1.42
 
  LATTYP: Found a simple cubic cell.
 ALAT       =    30.0000000000
  
  Lattice vectors:
  
 A1 = (  30.0000000000,   0.0000000000,   0.0000000000)
 A2 = (   0.0000000000,  30.0000000000,   0.0000000000)
 A3 = (   0.0000000000,   0.0000000000,  30.0000000000)


Analysis of symmetry for initial positions (statically):
=====================================================================
 Subroutine PRICEL returns:
 Original cell was already a primitive cell.
 

 Routine SETGRP: Setting up the symmetry group for a 
 simple cubic supercell.


 Subroutine GETGRP returns: Found  1 space group operations
 (whereof  1 operations were pure point group operations)
 out of a pool of 48 trial point group operations.


The static configuration has the point symmetry C_1 .


Analysis of symmetry for dynamics (positions and initial velocities):
=====================================================================
 Subroutine PRICEL returns:
 Original cell was already a primitive cell.
 

 Routine SETGRP: Setting up the symmetry group for a 
 simple cubic supercell.


 Subroutine GETGRP returns: Found  1 space group operations
 (whereof  1 operations were pure point group operations)
 out of a pool of 48 trial point group operations.


The dynamic configuration has the point symmetry C_1 .
 
 
 KPOINTS: Mo2C                                    

Automatic generation of k-mesh.
Space group operators:
 irot       det(A)        alpha          n_x          n_y          n_z        tau_x        tau_y        tau_z
    1     1.000000     0.000000     1.000000     0.000000     0.000000     0.000000     0.000000     0.000000
 
 Subroutine IBZKPT returns following result:
 ===========================================
 
 Found      4 irreducible k-points:
 
 Following reciprocal coordinates:
            Coordinates               Weight
  0.250000  0.250000  0.250000      2.000000
 -0.250000  0.250000  0.250000      2.000000
  0.250000 -0.250000  0.250000      2.000000
 -0.250000 -0.250000  0.250000      2.000000
 
 Following cartesian coordinates:
            Coordinates               Weight
  0.008333  0.008333  0.008333      2.000000
 -0.008333  0.008333  0.008333      2.000000
  0.008333 -0.008333  0.008333      2.000000
 -0.008333 -0.008333  0.008333      2.000000
 


--------------------------------------------------------------------------------------------------------




 Dimension of arrays:
   k-points           NKPTS =      4   k-points in BZ     NKDIM =      4   number of bands    NBANDS=     12
   number of dos      NEDOS =    301   number of ions     NIONS =      6
   non local maximal  LDIM  =      4   non local SUM 2l+1 LMDIM =      8
   total plane-waves  NPLWV = ******
   max r-space proj   IRMAX =   2395   max aug-charges    IRDMAX=   1738
   dimension x,y,z NGX =   150 NGY =  150 NGZ =  150
   dimension x,y,z NGXF=   300 NGYF=  300 NGZF=  300
   support grid    NGXF=   300 NGYF=  300 NGZF=  300
   ions per type =               3   2   1
 NGX,Y,Z   is equivalent  to a cutoff of   8.31,  8.31,  8.31 a.u.
 NGXF,Y,Z  is equivalent  to a cutoff of  16.62, 16.62, 16.62 a.u.


 I would recommend the setting:
   dimension x,y,z NGX =   147 NGY =  147 NGZ =  147
 SYSTEM =  unknown system                          
 POSCAR =  H3 C2 N1                                

 Startparameter for this run:
   NWRITE =      2    write-flag & timer
   PREC   = normal    normal or accurate (medium, high low for compatibility)
   ISTART =      0    job   : 0-new  1-cont  2-samecut
   ICHARG =      2    charge: 1-file 2-atom 10-const
   ISPIN  =      1    spin polarized calculation?
   LNONCOLLINEAR =      F non collinear calculations
   LSORBIT =      F    spin-orbit coupling
   INIWAV =      1    electr: 0-lowe 1-rand  2-diag
   LASPH  =      F    aspherical Exc in radial PAW
   METAGGA=      F    non-selfconsistent MetaGGA calc.

 Electronic Relaxation 1
   ENCUT  =  400.0 eV  29.40 Ry    5.42 a.u.  48.92 48.92 48.92*2*pi/ulx,y,z
   ENINI  =  400.0     initial cutoff
   ENAUG  =  644.9 eV  augmentation charge cutoff
   NELM   =    500;   NELMIN=  6; NELMDL= -5     # of ELM steps 
   EDIFF  = 0.1E-03   stopping-criterion for ELM
   LREAL  =      T    real-space projection
   NLSPLINE    = F    spline interpolate recip. space projectors
   LCOMPAT=      F    compatible to vasp.4.4
   GGA_COMPAT  = T    GGA compatible to vasp.4.4-vasp.4.6
   LMAXPAW     = -100 max onsite density
   LMAXMIX     =    2 max onsite mixed and CHGCAR
   VOSKOWN=      0    Vosko Wilk Nusair interpolation
   ROPT   =   -0.00050  -0.00050  -0.00050
 Ionic relaxation
   EDIFFG = -.1E+00   stopping-criterion for IOM
   NSW    =    300    number of steps for IOM
   NBLOCK =      1;   KBLOCK =    300    inner block; outer block 
   IBRION =      3    ionic relax: 0-MD 1-quasi-New 2-CG
   NFREE  =      0    steps in history (QN), initial steepest desc. (CG)
   ISIF   =      2    stress and relaxation
   IWAVPR =     11    prediction:  0-non 1-charg 2-wave 3-comb
   ISYM   =      2    0-nonsym 1-usesym 2-fastsym
   LCORR  =      T    Harris-Foulkes like correction to forces

   POTIM  = 0.0000    time-step for ionic-motion
   TEIN   =    0.0    initial temperature
   TEBEG  =    0.0;   TEEND  =   0.0 temperature during run
   SMASS  =   2.00    Nose mass-parameter (am)
   estimated Nose-frequenzy (Omega)   =  0.12E+10 period in steps =  0.00 mass=   0.137E-25a.u.
   SCALEE = 1.0000    scale energy and forces
   NPACO  =    256;   APACO  = 16.0  distance and # of slots for P.C.
   PSTRESS=    0.0 pullay stress

  Mass of Ions in am
   POMASS =   1.00 12.01 14.00
  Ionic Valenz
   ZVAL   =   1.00  4.00  5.00
  Atomic Wigner-Seitz radii
   RWIGS  =  -1.00 -1.00 -1.00
  virtual crystal weights 
   VCA    =   1.00  1.00  1.00
   NELECT =      16.0000    total number of electrons
   NUPDOWN=      -1.0000    fix difference up-down

 DOS related values:
   EMIN   =  10.00;   EMAX   =-10.00  energy-range for DOS
   EFERMI =   0.00
   ISMEAR =     0;   SIGMA  =   0.20  broadening in eV -4-tet -1-fermi 0-gaus

 Electronic relaxation 2 (details)
   IALGO  =     38    algorithm
   LDIAG  =      T    sub-space diagonalisation (order eigenvalues)
   LSUBROT=      F    optimize rotation matrix (better conditioning)
   TURBO    =      0    0=normal 1=particle mesh
   IRESTART =      0    0=no restart 2=restart with 2 vectors
   NREBOOT  =      0    no. of reboots
   NMIN     =      0    reboot dimension
   EREF     =   0.00    reference energy to select bands
   IMIX   =      4    mixing-type and parameters
     AMIX     =   0.40;   BMIX     =  1.00
     AMIX_MAG =   1.60;   BMIX_MAG =  1.00
     AMIN     =   0.10
     WC   =   100.;   INIMIX=   1;  MIXPRE=   1;  MAXMIX= -45

 Intra band minimization:
   WEIMIN = 0.0010     energy-eigenvalue tresh-hold
   EBREAK =  0.21E-05  absolut break condition
   DEPER  =   0.30     relativ break condition  

   TIME   =   0.40     timestep for ELM

  volume/ion in A,a.u.               =    4500.00     30367.50
  Fermi-wavevector in a.u.,A,eV,Ry     =   0.137508  0.259852  0.257264  0.018908
  Thomas-Fermi vector in A             =   0.790710
 
 Write flags
   LWAVE  =      F    write WAVECAR
   LCHARG =      F    write CHGCAR
   LVTOT  =      F    write LOCPOT, total local potential
   LVHAR  =      F    write LOCPOT, Hartree potential only
   LELF   =      F    write electronic localiz. function (ELF)
   LORBIT =      0    0 simple, 1 ext, 2 COOP (PROOUT)


 Dipole corrections
   LMONO  =      F    monopole corrections only (constant potential shift)
   LDIPOL =      F    correct potential (dipole corrections)
   IDIPOL =      0    1-x, 2-y, 3-z, 4-all directions 
   EPSILON=  1.0000000 bulk dielectric constant

 Exchange correlation treatment:
   GGA     =    PE    GGA type
   LEXCH   =     8    internal setting for exchange type
   VOSKOWN=      0    Vosko Wilk Nusair interpolation
   LHFCALC =     F    Hartree Fock is set to
   LHFONE  =     F    Hartree Fock one center treatment
   AEXX    =    0.0000 exact exchange contribution

 Linear response parameters
   LEPSILON=     F    determine dielectric tensor
   LRPA    =     F    only Hartree local field effects (RPA)
   LNABLA  =     F    use nabla operator in PAW spheres
   LVEL    =     F    velocity operator in full k-point grid
   LINTERFAST=   F  fast interpolation
   KINTER  =     0    interpolate to denser k-point grid
   CSHIFT  =0.1000    complex shift for real part using Kramers Kronig
   OMEGAMAX=  -1.0    maximum frequency
   DEG_THRESHOLD= 0.2000000E-02 threshold for treating states as degnerate
   RTIME   =    0.100 relaxation time in fs

 Orbital magnetization related:
   ORBITALMAG=     F  switch on orbital magnetization
   LCHIMAG   =     F  perturbation theory with respect to B field
   DQ        =  0.001000  dq finite difference perturbation B field



--------------------------------------------------------------------------------------------------------


 quickmin algorithm: (dynamic with friction)
 charge density and potential will be updated during run
 non-spin polarized calculation
 Variant of blocked Davidson
 Davidson routine will perform the subspace rotation
 perform sub-space diagonalisation
    after iterative eigenvector-optimisation
 modified Broyden-mixing scheme, WC =      100.0
 initial mixing is a Kerker type mixing with AMIX =  0.4000 and BMIX =      1.0000
 Hartree-type preconditioning will be used
 using additional bands            4
 real space projection scheme for non local part
 use partial core corrections
 calculate Harris-corrections to forces 
   (improved forces if not selfconsistent)
 use gradient corrections 
 use of overlap-Matrix (Vanderbilt PP)
 Gauss-broadening in eV      SIGMA  =   0.20


--------------------------------------------------------------------------------------------------------


  energy-cutoff  :      400.00
  volume of cell :    27000.00
      direct lattice vectors                 reciprocal lattice vectors
    30.000000000  0.000000000  0.000000000     0.033333333  0.000000000  0.000000000
     0.000000000 30.000000000  0.000000000     0.000000000  0.033333333  0.000000000
     0.000000000  0.000000000 30.000000000     0.000000000  0.000000000  0.033333333

  length of vectors
    30.000000000 30.000000000 30.000000000     0.033333333  0.033333333  0.033333333


 
 k-points in units of 2pi/SCALE and weight: Mo2C                                    
   0.00833333  0.00833333  0.00833333       0.250
  -0.00833333  0.00833333  0.00833333       0.250
   0.00833333 -0.00833333  0.00833333       0.250
  -0.00833333 -0.00833333  0.00833333       0.250
 
 k-points in reciprocal lattice and weights: Mo2C                                    
   0.25000000  0.25000000  0.25000000       0.250
  -0.25000000  0.25000000  0.25000000       0.250
   0.25000000 -0.25000000  0.25000000       0.250
  -0.25000000 -0.25000000  0.25000000       0.250
 
 position of ions in fractional coordinates (direct lattice) 
   0.47145097  0.46864285  0.50904537
   0.47435047  0.51161585  0.46758457
   0.46925954  0.52616574  0.52539077
   0.48378207  0.50229536  0.50168592
   0.56742535  0.48971612  0.49228452
   0.53107241  0.50061222  0.50288455
 
 position of ions in cartesian coordinates  (Angst):
  14.14352901 14.05928552 15.27136111
  14.23051405 15.34847535 14.02753724
  14.07778625 15.78497224 15.76172315
  14.51346222 15.06886072 15.05057759
  17.02276050 14.69148356 14.76853553
  15.93217241 15.01836675 15.08653645
 


--------------------------------------------------------------------------------------------------------


 k-point  1 :   0.2500 0.2500 0.2500  plane waves:  490454
 k-point  2 :  -0.2500 0.2500 0.2500  plane waves:  490454
 k-point  3 :   0.2500-0.2500 0.2500  plane waves:  490454
 k-point  4 :  -0.2500-0.2500 0.2500  plane waves:  490454

 maximum and minimum number of plane-waves per node :    490454   490454

 maximum number of plane-waves:    490454
 maximum index in each direction: 
   IXMAX=   49   IYMAX=   49   IZMAX=   48
   IXMIN=  -49   IYMIN=  -49   IZMIN=  -49

 WARNING: aliasing errors must be expected set NGX to 198 to avoid them
 WARNING: aliasing errors must be expected set NGY to 198 to avoid them
 WARNING: aliasing errors must be expected set NGZ to 196 to avoid them
 aliasing errors are usually negligible using standard VASP settings
 and one can safely disregard these warnings

 serial   3D FFT for wavefunctions
 parallel 3D FFT for charge:
    minimum data exchange during FFTs selected (reduces bandwidth)


 total amount of memory used by VASP on root node  3203889. kBytes
========================================================================

   base      :      30000. kBytes
   nonlr-proj:        693. kBytes
   fftplans  :     924480. kBytes
   grid      :    1872000. kBytes
   one-center:         18. kBytes
   wavefun   :     376698. kBytes
 
     INWAV:  cpu time    0.0000: real time    0.0005
 Broyden mixing: mesh for mixing (old mesh)
   NGX = 97   NGY = 97   NGZ = 97
  (NGX  =300   NGY  =300   NGZ  =300)
  gives a total of 912673 points

 initial charge density was supplied:
 charge density of overlapping atoms calculated
 number of electron      16.0000000 magnetization 
 keeping initial charge density in first step


--------------------------------------------------------------------------------------------------------


 Maximum index for non-local projection operator         2275
 Maximum index for augmentation-charges         1495 (set IRDMAX)


--------------------------------------------------------------------------------------------------------


 First call to EWALD:  gamma=   0.059
 Maximum number of real-space cells 3x 3x 3
 Maximum number of reciprocal cells 3x 3x 3

 FEWALD executed in parallel
    FEWALD:  cpu time    0.0030: real time    0.0027


----------------------------------------- Iteration    1(   1)  ---------------------------------------


    POTLOK:  cpu time   27.6728: real time   27.7357
    SETDIJ:  cpu time    0.0070: real time    0.0071
     EDDAV:  cpu time  118.4450: real time  118.7228
       DOS:  cpu time    0.0000: real time    0.0003
    --------------------------------------------
      LOOP:  cpu time  146.1288: real time  146.4715

 eigenvalue-minimisations  :   160
 total energy-change (2. order) : 0.1135741E+03  (-0.2138883E+03)
 number of electron      16.0000000 magnetization 
 augmentation part       16.0000000 magnetization 

 Free energy of the ion-electron system (eV)
  ---------------------------------------------------
  alpha Z        PSCENC =         0.04144063
  Ewald energy   TEWEN  =       705.16387247
  -Hartree energ DENC   =     -1119.60511850
  -exchange      EXHF   =         0.00000000
  -V(xc)+E(xc)   XCENC  =        51.42242776
  PAW double counting   =       428.37890668     -430.73533574
  entropy T*S    EENTRO =        -0.18431918
  eigenvalues    EBANDS =      -117.07312399
  atomic energy  EATOM  =       596.16534815
  Solvation  Ediel_sol  =         0.00000000
  ---------------------------------------------------
  free energy    TOTEN  =       113.57409829 eV

  energy without entropy =      113.75841747  energy(sigma->0) =      113.66625788


--------------------------------------------------------------------------------------------------------




----------------------------------------- Iteration    1(   2)  ---------------------------------------


     EDDAV:  cpu time  143.1692: real time  143.6020
       DOS:  cpu time    0.0000: real time    0.0002
    --------------------------------------------
      LOOP:  cpu time  143.1712: real time  143.6062

 eigenvalue-minimisations  :   192
 total energy-change (2. order) :-0.1176366E+03  (-0.1154732E+03)
 number of electron      16.0000000 magnetization 
 augmentation part       16.0000000 magnetization 

 Free energy of the ion-electron system (eV)
  ---------------------------------------------------
  alpha Z        PSCENC =         0.04144063
  Ewald energy   TEWEN  =       705.16387247
  -Hartree energ DENC   =     -1119.60511850
  -exchange      EXHF   =         0.00000000
  -V(xc)+E(xc)   XCENC  =        51.42242776
  PAW double counting   =       428.37890668     -430.73533574
  entropy T*S    EENTRO =         0.00000000
  eigenvalues    EBANDS =      -234.89404321
  atomic energy  EATOM  =       596.16534815
  Solvation  Ediel_sol  =         0.00000000
  ---------------------------------------------------
  free energy    TOTEN  =        -4.06250175 eV

  energy without entropy =       -4.06250175  energy(sigma->0) =       -4.06250175


--------------------------------------------------------------------------------------------------------




----------------------------------------- Iteration    1(   3)  ---------------------------------------


     EDDAV:  cpu time  106.9127: real time  107.1762
       DOS:  cpu time    0.0000: real time    0.0002
    --------------------------------------------
      LOOP:  cpu time  106.9137: real time  107.1808

 eigenvalue-minimisations  :   128
 total energy-change (2. order) :-0.3101771E+02  (-0.3086092E+02)
 number of electron      16.0000000 magnetization 
 augmentation part       16.0000000 magnetization 

 Free energy of the ion-electron system (eV)
  ---------------------------------------------------
  alpha Z        PSCENC =         0.04144063
  Ewald energy   TEWEN  =       705.16387247
  -Hartree energ DENC   =     -1119.60511850
  -exchange      EXHF   =         0.00000000
  -V(xc)+E(xc)   XCENC  =        51.42242776
  PAW double counting   =       428.37890668     -430.73533574
  entropy T*S    EENTRO =         0.00000000
  eigenvalues    EBANDS =      -265.91175289
  atomic energy  EATOM  =       596.16534815
  Solvation  Ediel_sol  =         0.00000000
  ---------------------------------------------------
  free energy    TOTEN  =       -35.08021144 eV

  energy without entropy =      -35.08021144  energy(sigma->0) =      -35.08021144


--------------------------------------------------------------------------------------------------------




----------------------------------------- Iteration    1(   4)  ---------------------------------------


     EDDAV:  cpu time  107.7376: real time  108.0744
       DOS:  cpu time    0.0000: real time    0.0002
    --------------------------------------------
      LOOP:  cpu time  107.7386: real time  108.0782

 eigenvalue-minimisations  :   128
 total energy-change (2. order) :-0.3789893E+01  (-0.3738563E+01)
 number of electron      16.0000000 magnetization 
 augmentation part       16.0000000 magnetization 

 Free energy of the ion-electron system (eV)
  ---------------------------------------------------
  alpha Z        PSCENC =         0.04144063
  Ewald energy   TEWEN  =       705.16387247
  -Hartree energ DENC   =     -1119.60511850
  -exchange      EXHF   =         0.00000000
  -V(xc)+E(xc)   XCENC  =        51.42242776
  PAW double counting   =       428.37890668     -430.73533574
  entropy T*S    EENTRO =         0.00000000
  eigenvalues    EBANDS =      -269.70164616
  atomic energy  EATOM  =       596.16534815
  Solvation  Ediel_sol  =         0.00000000
  ---------------------------------------------------
  free energy    TOTEN  =       -38.87010470 eV

  energy without entropy =      -38.87010470  energy(sigma->0) =      -38.87010470


--------------------------------------------------------------------------------------------------------




----------------------------------------- Iteration    1(   5)  ---------------------------------------


     EDDAV:  cpu time   99.4869: real time   99.7663
       DOS:  cpu time    0.0000: real time    0.0002
    CHARGE:  cpu time    7.7188: real time    7.7415
    MIXING:  cpu time    0.7089: real time    0.7113
    --------------------------------------------
      LOOP:  cpu time  107.9166: real time  108.2232

 eigenvalue-minimisations  :   116
 total energy-change (2. order) :-0.1099062E+00  (-0.1091961E+00)
 number of electron      15.9999991 magnetization 
 augmentation part        0.5174714 magnetization 

 Broyden mixing:
  rms(total) = 0.10432E+01    rms(broyden)= 0.10425E+01
  rms(prec ) = 0.10795E+01
  weight for this iteration     100.00

 Free energy of the ion-electron system (eV)
  ---------------------------------------------------
  alpha Z        PSCENC =         0.04144063
  Ewald energy   TEWEN  =       705.16387247
  -Hartree energ DENC   =     -1119.60511850
  -exchange      EXHF   =         0.00000000
  -V(xc)+E(xc)   XCENC  =        51.42242776
  PAW double counting   =       428.37890668     -430.73533574
  entropy T*S    EENTRO =         0.00000000
  eigenvalues    EBANDS =      -269.81155236
  atomic energy  EATOM  =       596.16534815
  Solvation  Ediel_sol  =         0.00000000
  ---------------------------------------------------
  free energy    TOTEN  =       -38.98001091 eV

  energy without entropy =      -38.98001091  energy(sigma->0) =      -38.98001091


--------------------------------------------------------------------------------------------------------




----------------------------------------- Iteration    1(   6)  ---------------------------------------


    POTLOK:  cpu time   27.6898: real time   27.7669
    SETDIJ:  cpu time    0.0060: real time    0.0066
     EDDAV:  cpu time   99.4769: real time   99.7165
       DOS:  cpu time    0.0000: real time    0.0002
    CHARGE:  cpu time    8.8896: real time    8.9119
    MIXING:  cpu time    1.0068: real time    1.0096
    --------------------------------------------
      LOOP:  cpu time  137.0712: real time  137.4161

 eigenvalue-minimisations  :   116
 total energy-change (2. order) : 0.2687483E+01  (-0.4411829E+00)
 number of electron      15.9999989 magnetization 
 augmentation part        0.4711544 magnetization 

 Broyden mixing:
  rms(total) = 0.56393E+00    rms(broyden)= 0.56383E+00
  rms(prec ) = 0.57941E+00
  weight for this iteration     100.00

 eigenvalues of (default mixing * dielectric matrix)
  average eigenvalue GAMMA=   1.5914
  1.5914

 Free energy of the ion-electron system (eV)
  ---------------------------------------------------
  alpha Z        PSCENC =         0.04144063
  Ewald energy   TEWEN  =       705.16387247
  -Hartree energ DENC   =     -1148.85968002
  -exchange      EXHF   =         0.00000000
  -V(xc)+E(xc)   XCENC  =        53.02628363
  PAW double counting   =       718.77514456     -721.46509922
  entropy T*S    EENTRO =         0.00000000
  eigenvalues    EBANDS =      -239.13983797
  atomic energy  EATOM  =       596.16534815
  Solvation  Ediel_sol  =         0.00000000
  ---------------------------------------------------
  free energy    TOTEN  =       -36.29252777 eV

  energy without entropy =      -36.29252777  energy(sigma->0) =      -36.29252777


--------------------------------------------------------------------------------------------------------




----------------------------------------- Iteration    1(   7)  ---------------------------------------


    POTLOK:  cpu time   28.8206: real time   28.8957
    SETDIJ:  cpu time    0.0060: real time    0.0064
     EDDAV:  cpu time  105.3230: real time  105.5869
       DOS:  cpu time    0.0000: real time    0.0002
    CHARGE:  cpu time    8.0688: real time    8.0881
    MIXING:  cpu time    0.7929: real time    0.7948
    --------------------------------------------
      LOOP:  cpu time  143.0133: real time  143.3769

 eigenvalue-minimisations  :   124
 total energy-change (2. order) : 0.6916239E+00  (-0.1785019E+00)
 number of electron      15.9999989 magnetization 
 augmentation part        0.4569654 magnetization 

 Broyden mixing:
  rms(total) = 0.22984E+00    rms(broyden)= 0.22978E+00
  rms(prec ) = 0.23507E+00
  weight for this iteration     100.00

 eigenvalues of (default mixing * dielectric matrix)
  average eigenvalue GAMMA=   1.5506
  1.0441  2.0572

 Free energy of the ion-electron system (eV)
  ---------------------------------------------------
  alpha Z        PSCENC =         0.04144063
  Ewald energy   TEWEN  =       705.16387247
  -Hartree energ DENC   =     -1168.40514811
  -exchange      EXHF   =         0.00000000
  -V(xc)+E(xc)   XCENC  =        54.27228220
  PAW double counting   =      1090.32953761    -1093.20677759
  entropy T*S    EENTRO =         0.00000000
  eigenvalues    EBANDS =      -219.96145926
  atomic energy  EATOM  =       596.16534815
  Solvation  Ediel_sol  =         0.00000000
  ---------------------------------------------------
  free energy    TOTEN  =       -35.60090389 eV

  energy without entropy =      -35.60090389  energy(sigma->0) =      -35.60090389


--------------------------------------------------------------------------------------------------------




----------------------------------------- Iteration    1(   8)  ---------------------------------------


    POTLOK:  cpu time   26.3270: real time   26.3884
    SETDIJ:  cpu time    0.0060: real time    0.0063
     EDDAV:  cpu time  108.5135: real time  108.7726
       DOS:  cpu time    0.0000: real time    0.0002
    CHARGE:  cpu time    9.1646: real time    9.1941
    MIXING:  cpu time    1.0558: real time    1.0594
    --------------------------------------------
      LOOP:  cpu time  145.0679: real time  145.4254

 eigenvalue-minimisations  :   128
 total energy-change (2. order) : 0.7213414E-01  (-0.1606448E-01)
 number of electron      15.9999989 magnetization 
 augmentation part        0.4474369 magnetization 

 Broyden mixing:
  rms(total) = 0.92742E-01    rms(broyden)= 0.92718E-01
  rms(prec ) = 0.96841E-01
  weight for this iteration     100.00

 eigenvalues of (default mixing * dielectric matrix)
  average eigenvalue GAMMA=   1.5910
  2.3230  1.6330  0.8170

 Free energy of the ion-electron system (eV)
  ---------------------------------------------------
  alpha Z        PSCENC =         0.04144063
  Ewald energy   TEWEN  =       705.16387247
  -Hartree energ DENC   =     -1175.02210057
  -exchange      EXHF   =         0.00000000
  -V(xc)+E(xc)   XCENC  =        54.70245863
  PAW double counting   =      1267.44453434    -1270.34694498
  entropy T*S    EENTRO =         0.00000000
  eigenvalues    EBANDS =      -213.67737843
  atomic energy  EATOM  =       596.16534815
  Solvation  Ediel_sol  =         0.00000000
  ---------------------------------------------------
  free energy    TOTEN  =       -35.52876975 eV

  energy without entropy =      -35.52876975  energy(sigma->0) =      -35.52876975


--------------------------------------------------------------------------------------------------------




----------------------------------------- Iteration    1(   9)  ---------------------------------------


    POTLOK:  cpu time   28.4017: real time   28.4894
    SETDIJ:  cpu time    0.0070: real time    0.0068
     EDDAV:  cpu time  102.6474: real time  102.9657
       DOS:  cpu time    0.0000: real time    0.0002
    CHARGE:  cpu time    8.0778: real time    8.1035
    MIXING:  cpu time    1.0708: real time    1.0742
    --------------------------------------------
      LOOP:  cpu time  140.2067: real time  140.6441

 eigenvalue-minimisations  :   120
 total energy-change (2. order) : 0.1914129E-01  (-0.2639204E-02)
 number of electron      15.9999989 magnetization 
 augmentation part        0.4479914 magnetization 

 Broyden mixing:
  rms(total) = 0.22421E-01    rms(broyden)= 0.22409E-01
  rms(prec ) = 0.28288E-01
  weight for this iteration     100.00

 eigenvalues of (default mixing * dielectric matrix)
  average eigenvalue GAMMA=   1.5187
  2.1446  1.8109  0.8450  1.2742

 Free energy of the ion-electron system (eV)
  ---------------------------------------------------
  alpha Z        PSCENC =         0.04144063
  Ewald energy   TEWEN  =       705.16387247
  -Hartree energ DENC   =     -1176.25511307
  -exchange      EXHF   =         0.00000000
  -V(xc)+E(xc)   XCENC  =        54.79078611
  PAW double counting   =      1336.99342073    -1339.86672847
  entropy T*S    EENTRO =         0.00000000
  eigenvalues    EBANDS =      -212.54265502
  atomic energy  EATOM  =       596.16534815
  Solvation  Ediel_sol  =         0.00000000
  ---------------------------------------------------
  free energy    TOTEN  =       -35.50962846 eV

  energy without entropy =      -35.50962846  energy(sigma->0) =      -35.50962846


--------------------------------------------------------------------------------------------------------




----------------------------------------- Iteration    1(  10)  ---------------------------------------


    POTLOK:  cpu time   26.4140: real time   26.4856
    SETDIJ:  cpu time    0.0060: real time    0.0065
     EDDAV:  cpu time  108.6705: real time  108.9280
       DOS:  cpu time    0.0000: real time    0.0002
    CHARGE:  cpu time    8.1058: real time    8.1259
    MIXING:  cpu time    1.2038: real time    1.2061
    --------------------------------------------
      LOOP:  cpu time  144.4030: real time  144.7568

 eigenvalue-minimisations  :   128
 total energy-change (2. order) : 0.2140741E-03  (-0.4529132E-03)
 number of electron      15.9999989 magnetization 
 augmentation part        0.4488651 magnetization 

 Broyden mixing:
  rms(total) = 0.13305E-01    rms(broyden)= 0.13298E-01
  rms(prec ) = 0.18899E-01
  weight for this iteration     100.00

 eigenvalues of (default mixing * dielectric matrix)
  average eigenvalue GAMMA=   1.5035
  2.1749  2.1749  0.8852  0.8852  1.3973

 Free energy of the ion-electron system (eV)
  ---------------------------------------------------
  alpha Z        PSCENC =         0.04144063
  Ewald energy   TEWEN  =       705.16387247
  -Hartree energ DENC   =     -1177.16758210
  -exchange      EXHF   =         0.00000000
  -V(xc)+E(xc)   XCENC  =        54.81208755
  PAW double counting   =      1331.72196958    -1334.59153228
  entropy T*S    EENTRO =         0.00000000
  eigenvalues    EBANDS =      -211.65501839
  atomic energy  EATOM  =       596.16534815
  Solvation  Ediel_sol  =         0.00000000
  ---------------------------------------------------
  free energy    TOTEN  =       -35.50941439 eV

  energy without entropy =      -35.50941439  energy(sigma->0) =      -35.50941439


--------------------------------------------------------------------------------------------------------




----------------------------------------- Iteration    1(  11)  ---------------------------------------


    POTLOK:  cpu time   27.5398: real time   27.6073
    SETDIJ:  cpu time    0.0070: real time    0.0066
     EDDAV:  cpu time   90.4502: real time   90.6679
       DOS:  cpu time    0.0000: real time    0.0002
    CHARGE:  cpu time    8.4247: real time    8.4459
    MIXING:  cpu time    1.2768: real time    1.2793
    --------------------------------------------
      LOOP:  cpu time  127.6996: real time  128.0115

 eigenvalue-minimisations  :   104
 total energy-change (2. order) :-0.1643634E-02  (-0.1481641E-03)
 number of electron      15.9999989 magnetization 
 augmentation part        0.4484340 magnetization 

 Broyden mixing:
  rms(total) = 0.81243E-02    rms(broyden)= 0.81228E-02
  rms(prec ) = 0.12996E-01
  weight for this iteration     100.00

 eigenvalues of (default mixing * dielectric matrix)
  average eigenvalue GAMMA=   1.6500
  2.6339  2.6339  1.4242  1.4242  0.8920  0.8920

 Free energy of the ion-electron system (eV)
  ---------------------------------------------------
  alpha Z        PSCENC =         0.04144063
  Ewald energy   TEWEN  =       705.16387247
  -Hartree energ DENC   =     -1178.18621822
  -exchange      EXHF   =         0.00000000
  -V(xc)+E(xc)   XCENC  =        54.84244046
  PAW double counting   =      1330.62178256    -1333.48931911
  entropy T*S    EENTRO =         0.00000000
  eigenvalues    EBANDS =      -210.67040496
  atomic energy  EATOM  =       596.16534815
  Solvation  Ediel_sol  =         0.00000000
  ---------------------------------------------------
  free energy    TOTEN  =       -35.51105802 eV

  energy without entropy =      -35.51105802  energy(sigma->0) =      -35.51105802


--------------------------------------------------------------------------------------------------------




----------------------------------------- Iteration    1(  12)  ---------------------------------------


    POTLOK:  cpu time   28.9036: real time   28.9886
    SETDIJ:  cpu time    0.0070: real time    0.0067
     EDDAV:  cpu time   97.0772: real time   97.3123
       DOS:  cpu time    0.0000: real time    0.0002
    CHARGE:  cpu time    7.9228: real time    7.9420
    MIXING:  cpu time    1.4138: real time    1.4167
    --------------------------------------------
      LOOP:  cpu time  135.3264: real time  135.6710

 eigenvalue-minimisations  :   112
 total energy-change (2. order) :-0.5484132E-02  (-0.3088456E-03)
 number of electron      15.9999989 magnetization 
 augmentation part        0.4481259 magnetization 

 Broyden mixing:
  rms(total) = 0.45995E-02    rms(broyden)= 0.45931E-02
  rms(prec ) = 0.73637E-02
  weight for this iteration     100.00

 eigenvalues of (default mixing * dielectric matrix)
  average eigenvalue GAMMA=   1.7723
  3.7529  2.2517  1.8623  1.6212  0.8939  1.0119  1.0119

 Free energy of the ion-electron system (eV)
  ---------------------------------------------------
  alpha Z        PSCENC =         0.04144063
  Ewald energy   TEWEN  =       705.16387247
  -Hartree energ DENC   =     -1179.45667291
  -exchange      EXHF   =         0.00000000
  -V(xc)+E(xc)   XCENC  =        54.87352722
  PAW double counting   =      1327.53000241    -1330.39505984
  entropy T*S    EENTRO =         0.00000000
  eigenvalues    EBANDS =      -209.43900028
  atomic energy  EATOM  =       596.16534815
  Solvation  Ediel_sol  =         0.00000000
  ---------------------------------------------------
  free energy    TOTEN  =       -35.51654215 eV

  energy without entropy =      -35.51654215  energy(sigma->0) =      -35.51654215


--------------------------------------------------------------------------------------------------------




----------------------------------------- Iteration    1(  13)  ---------------------------------------


    POTLOK:  cpu time   26.8369: real time   26.9014
    SETDIJ:  cpu time    0.0060: real time    0.0065
     EDDAV:  cpu time   97.1592: real time   97.4151
       DOS:  cpu time    0.0000: real time    0.0002
    CHARGE:  cpu time    8.7947: real time    8.8153
    MIXING:  cpu time    1.8047: real time    1.8095
    --------------------------------------------
      LOOP:  cpu time  134.6035: real time  134.9524

 eigenvalue-minimisations  :   112
 total energy-change (2. order) :-0.6040002E-02  (-0.1652671E-03)
 number of electron      15.9999989 magnetization 
 augmentation part        0.4479370 magnetization 

 Broyden mixing:
  rms(total) = 0.28106E-02    rms(broyden)= 0.28076E-02
  rms(prec ) = 0.42939E-02
  weight for this iteration     100.00

 eigenvalues of (default mixing * dielectric matrix)
  average eigenvalue GAMMA=   1.8771
  4.8531  2.4395  1.8659  1.6671  1.3458  0.9003  0.9003  1.0448

 Free energy of the ion-electron system (eV)
  ---------------------------------------------------
  alpha Z        PSCENC =         0.04144063
  Ewald energy   TEWEN  =       705.16387247
  -Hartree energ DENC   =     -1180.07979827
  -exchange      EXHF   =         0.00000000
  -V(xc)+E(xc)   XCENC  =        54.88097495
  PAW double counting   =      1326.83048511    -1329.69599502
  entropy T*S    EENTRO =         0.00000000
  eigenvalues    EBANDS =      -208.82891018
  atomic energy  EATOM  =       596.16534815
  Solvation  Ediel_sol  =         0.00000000
  ---------------------------------------------------
  free energy    TOTEN  =       -35.52258215 eV

  energy without entropy =      -35.52258215  energy(sigma->0) =      -35.52258215


--------------------------------------------------------------------------------------------------------




----------------------------------------- Iteration    1(  14)  ---------------------------------------


    POTLOK:  cpu time   28.3477: real time   28.4155
    SETDIJ:  cpu time    0.0060: real time    0.0065
     EDDAV:  cpu time  106.9837: real time  107.2536
       DOS:  cpu time    0.0000: real time    0.0002
    CHARGE:  cpu time    8.2207: real time    8.2453
    MIXING:  cpu time    1.6088: real time    1.6133
    --------------------------------------------
      LOOP:  cpu time  145.1689: real time  145.5392

 eigenvalue-minimisations  :   128
 total energy-change (2. order) :-0.3643249E-02  (-0.4426580E-04)
 number of electron      15.9999989 magnetization 
 augmentation part        0.4479619 magnetization 

 Broyden mixing:
  rms(total) = 0.18772E-02    rms(broyden)= 0.18765E-02
  rms(prec ) = 0.27311E-02
  weight for this iteration     100.00

 eigenvalues of (default mixing * dielectric matrix)
  average eigenvalue GAMMA=   1.9254
  5.0309  2.4070  2.4070  1.9488  1.5689  1.0962  1.0962  0.8868  0.8868

 Free energy of the ion-electron system (eV)
  ---------------------------------------------------
  alpha Z        PSCENC =         0.04144063
  Ewald energy   TEWEN  =       705.16387247
  -Hartree energ DENC   =     -1180.27257451
  -exchange      EXHF   =         0.00000000
  -V(xc)+E(xc)   XCENC  =        54.87593918
  PAW double counting   =      1325.10923508    -1327.97466284
  entropy T*S    EENTRO =         0.00000000
  eigenvalues    EBANDS =      -208.63482357
  atomic energy  EATOM  =       596.16534815
  Solvation  Ediel_sol  =         0.00000000
  ---------------------------------------------------
  free energy    TOTEN  =       -35.52622540 eV

  energy without entropy =      -35.52622540  energy(sigma->0) =      -35.52622540


--------------------------------------------------------------------------------------------------------




----------------------------------------- Iteration    1(  15)  ---------------------------------------


    POTLOK:  cpu time   26.6989: real time   26.7753
    SETDIJ:  cpu time    0.0070: real time    0.0066
     EDDAV:  cpu time  105.2310: real time  105.5251
       DOS:  cpu time    0.0000: real time    0.0002
    CHARGE:  cpu time    7.7228: real time    7.7437
    MIXING:  cpu time    1.4118: real time    1.4162
    --------------------------------------------
      LOOP:  cpu time  141.0736: real time  141.4725

 eigenvalue-minimisations  :   128
 total energy-change (2. order) :-0.3077552E-02  (-0.2854961E-04)
 number of electron      15.9999989 magnetization 
 augmentation part        0.4479972 magnetization 

 Broyden mixing:
  rms(total) = 0.10966E-02    rms(broyden)= 0.10965E-02
  rms(prec ) = 0.16003E-02
  weight for this iteration     100.00

 eigenvalues of (default mixing * dielectric matrix)
  average eigenvalue GAMMA=   2.0958
  6.5438  3.4694  2.3826  1.6722  1.6722  1.4486  0.9228  0.9228  0.8808  1.0428

 Free energy of the ion-electron system (eV)
  ---------------------------------------------------
  alpha Z        PSCENC =         0.04144063
  Ewald energy   TEWEN  =       705.16387247
  -Hartree energ DENC   =     -1180.30981238
  -exchange      EXHF   =         0.00000000
  -V(xc)+E(xc)   XCENC  =        54.87089741
  PAW double counting   =      1326.02323837    -1328.88882428
  entropy T*S    EENTRO =         0.00000000
  eigenvalues    EBANDS =      -208.59546333
  atomic energy  EATOM  =       596.16534815
  Solvation  Ediel_sol  =         0.00000000
  ---------------------------------------------------
  free energy    TOTEN  =       -35.52930296 eV

  energy without entropy =      -35.52930296  energy(sigma->0) =      -35.52930296


--------------------------------------------------------------------------------------------------------




----------------------------------------- Iteration    1(  16)  ---------------------------------------


    POTLOK:  cpu time   25.1502: real time   25.2193
    SETDIJ:  cpu time    0.0070: real time    0.0065
     EDDAV:  cpu time   99.8618: real time  100.1353
       DOS:  cpu time    0.0000: real time    0.0002
    CHARGE:  cpu time    7.4399: real time    7.4605
    MIXING:  cpu time    1.6098: real time    1.6144
    --------------------------------------------
      LOOP:  cpu time  134.0706: real time  134.4408

 eigenvalue-minimisations  :   128
 total energy-change (2. order) :-0.1565505E-02  (-0.1616944E-04)
 number of electron      15.9999989 magnetization 
 augmentation part        0.4479841 magnetization 

 Broyden mixing:
  rms(total) = 0.67732E-03    rms(broyden)= 0.67709E-03
  rms(prec ) = 0.90970E-03
  weight for this iteration     100.00

 eigenvalues of (default mixing * dielectric matrix)
  average eigenvalue GAMMA=   2.1321
  7.1300  3.4477  2.2037  2.2037  1.6884  1.6884  1.2801  1.0124  1.0124  0.8931
  0.8931

 Free energy of the ion-electron system (eV)
  ---------------------------------------------------
  alpha Z        PSCENC =         0.04144063
  Ewald energy   TEWEN  =       705.16387247
  -Hartree energ DENC   =     -1180.34254349
  -exchange      EXHF   =         0.00000000
  -V(xc)+E(xc)   XCENC  =        54.86767433
  PAW double counting   =      1325.91203208    -1328.77765364
  entropy T*S    EENTRO =         0.00000000
  eigenvalues    EBANDS =      -208.56103899
  atomic energy  EATOM  =       596.16534815
  Solvation  Ediel_sol  =         0.00000000
  ---------------------------------------------------
  free energy    TOTEN  =       -35.53086846 eV

  energy without entropy =      -35.53086846  energy(sigma->0) =      -35.53086846


--------------------------------------------------------------------------------------------------------




----------------------------------------- Iteration    1(  17)  ---------------------------------------


    POTLOK:  cpu time   25.4511: real time   25.5207
    SETDIJ:  cpu time    0.0070: real time    0.0065
     EDDAV:  cpu time   81.8276: real time   82.0513
       DOS:  cpu time    0.0000: real time    0.0002
    CHARGE:  cpu time    7.5788: real time    7.6005
    MIXING:  cpu time    1.7747: real time    1.7788
    --------------------------------------------
      LOOP:  cpu time  116.6413: real time  116.9625

 eigenvalue-minimisations  :    96
 total energy-change (2. order) :-0.7638110E-03  (-0.2808788E-05)
 number of electron      15.9999989 magnetization 
 augmentation part        0.4479587 magnetization 

 Broyden mixing:
  rms(total) = 0.42850E-03    rms(broyden)= 0.42833E-03
  rms(prec ) = 0.55517E-03
  weight for this iteration     100.00

 eigenvalues of (default mixing * dielectric matrix)
  average eigenvalue GAMMA=   2.2453
  8.1031  4.0884  2.7246  2.3462  1.6750  1.6750  1.5223  1.0012  1.0012  1.0387
  0.8837  0.8837

 Free energy of the ion-electron system (eV)
  ---------------------------------------------------
  alpha Z        PSCENC =         0.04144063
  Ewald energy   TEWEN  =       705.16387247
  -Hartree energ DENC   =     -1180.35103650
  -exchange      EXHF   =         0.00000000
  -V(xc)+E(xc)   XCENC  =        54.86664507
  PAW double counting   =      1325.65248484    -1328.51795366
  entropy T*S    EENTRO =         0.00000000
  eigenvalues    EBANDS =      -208.55243327
  atomic energy  EATOM  =       596.16534815
  Solvation  Ediel_sol  =         0.00000000
  ---------------------------------------------------
  free energy    TOTEN  =       -35.53163227 eV

  energy without entropy =      -35.53163227  energy(sigma->0) =      -35.53163227


--------------------------------------------------------------------------------------------------------




----------------------------------------- Iteration    1(  18)  ---------------------------------------


    POTLOK:  cpu time   25.1672: real time   25.2356
    SETDIJ:  cpu time    0.0060: real time    0.0064
     EDDAV:  cpu time   81.8106: real time   82.0109
       DOS:  cpu time    0.0000: real time    0.0002
    CHARGE:  cpu time    7.5858: real time    7.6027
    MIXING:  cpu time    2.0117: real time    2.0160
    --------------------------------------------
      LOOP:  cpu time  116.5823: real time  116.8763

 eigenvalue-minimisations  :    96
 total energy-change (2. order) :-0.3788819E-03  (-0.2695075E-05)
 number of electron      15.9999989 magnetization 
 augmentation part        0.4479570 magnetization 

 Broyden mixing:
  rms(total) = 0.26845E-03    rms(broyden)= 0.26838E-03
  rms(prec ) = 0.33268E-03
  weight for this iteration     100.00

 eigenvalues of (default mixing * dielectric matrix)
  average eigenvalue GAMMA=   2.2764
  8.2173  4.7585  2.5902  2.1464  2.0481  2.0481  1.6460  1.3272  1.0296  1.0296
  0.9010  0.9010  0.9496

 Free energy of the ion-electron system (eV)
  ---------------------------------------------------
  alpha Z        PSCENC =         0.04144063
  Ewald energy   TEWEN  =       705.16387247
  -Hartree energ DENC   =     -1180.34668041
  -exchange      EXHF   =         0.00000000
  -V(xc)+E(xc)   XCENC  =        54.86593048
  PAW double counting   =      1325.90563414    -1328.77107956
  entropy T*S    EENTRO =         0.00000000
  eigenvalues    EBANDS =      -208.55647706
  atomic energy  EATOM  =       596.16534815
  Solvation  Ediel_sol  =         0.00000000
  ---------------------------------------------------
  free energy    TOTEN  =       -35.53201115 eV

  energy without entropy =      -35.53201115  energy(sigma->0) =      -35.53201115


--------------------------------------------------------------------------------------------------------




----------------------------------------- Iteration    1(  19)  ---------------------------------------


    POTLOK:  cpu time   24.3863: real time   24.4395
    SETDIJ:  cpu time    0.0060: real time    0.0066
     EDDAV:  cpu time   76.2014: real time   76.3698
       DOS:  cpu time    0.0000: real time    0.0002
    CHARGE:  cpu time    7.5539: real time    7.5712
    MIXING:  cpu time    2.0707: real time    2.0750
    --------------------------------------------
      LOOP:  cpu time  110.2182: real time  110.4665

 eigenvalue-minimisations  :    88
 total energy-change (2. order) :-0.1767256E-03  (-0.9595793E-06)
 number of electron      15.9999989 magnetization 
 augmentation part        0.4479649 magnetization 

 Broyden mixing:
  rms(total) = 0.16525E-03    rms(broyden)= 0.16517E-03
  rms(prec ) = 0.20289E-03
  weight for this iteration     100.00

 eigenvalues of (default mixing * dielectric matrix)
  average eigenvalue GAMMA=   2.3176
  8.6353  5.2098  3.2446  2.5603  1.7750  1.7750  1.7170  1.7170  1.0646  1.0646
  1.0351  0.8874  0.8874  0.8730

 Free energy of the ion-electron system (eV)
  ---------------------------------------------------
  alpha Z        PSCENC =         0.04144063
  Ewald energy   TEWEN  =       705.16387247
  -Hartree energ DENC   =     -1180.33678364
  -exchange      EXHF   =         0.00000000
  -V(xc)+E(xc)   XCENC  =        54.86533963
  PAW double counting   =      1325.90419741    -1328.76970672
  entropy T*S    EENTRO =         0.00000000
  eigenvalues    EBANDS =      -208.56589580
  atomic energy  EATOM  =       596.16534815
  Solvation  Ediel_sol  =         0.00000000
  ---------------------------------------------------
  free energy    TOTEN  =       -35.53218788 eV

  energy without entropy =      -35.53218788  energy(sigma->0) =      -35.53218788


--------------------------------------------------------------------------------------------------------




----------------------------------------- Iteration    1(  20)  ---------------------------------------


    POTLOK:  cpu time   24.0133: real time   24.0643
    SETDIJ:  cpu time    0.0060: real time    0.0064
     EDDAV:  cpu time   67.8017: real time   67.9476
       DOS:  cpu time    0.0000: real time    0.0002
    --------------------------------------------
      LOOP:  cpu time   91.8230: real time   92.0223

 eigenvalue-minimisations  :    84
 total energy-change (2. order) :-0.8957872E-04  (-0.3595525E-06)
 number of electron      15.9999989 magnetization 
 augmentation part        0.4479649 magnetization 

 Free energy of the ion-electron system (eV)
  ---------------------------------------------------
  alpha Z        PSCENC =         0.04144063
  Ewald energy   TEWEN  =       705.16387247
  -Hartree energ DENC   =     -1180.33736009
  -exchange      EXHF   =         0.00000000
  -V(xc)+E(xc)   XCENC  =        54.86517132
  PAW double counting   =      1325.77479830    -1328.64026827
  entropy T*S    EENTRO =         0.00000000
  eigenvalues    EBANDS =      -208.56527997
  atomic energy  EATOM  =       596.16534815
  Solvation  Ediel_sol  =         0.00000000
  ---------------------------------------------------
  free energy    TOTEN  =       -35.53227746 eV

  energy without entropy =      -35.53227746  energy(sigma->0) =      -35.53227746


--------------------------------------------------------------------------------------------------------




 average (electrostatic) potential at core
  the test charge radii are     0.5201  0.6991  0.7089
  (the norm of the test charge is              1.0000)
       1 -43.0524       2 -43.0493       3 -43.0234       4 -60.4874       5 -59.4052
       6 -74.7976
 
 
 
 E-fermi :  -6.2054     XC(G=0):  -0.0944     alpha+bet : -0.0137


 k-point     1 :       0.2500    0.2500    0.2500
  band No.  band energies     occupation 
      1     -23.9496      2.00000
      2     -19.1664      2.00000
      3     -13.7586      2.00000
      4     -11.8248      2.00000
      5     -11.7668      2.00000
      6      -8.4116      2.00000
      7      -8.2581      2.00000
      8      -7.1467      2.00000
      9      -1.2188      0.00000
     10      -0.7228      0.00000
     11      -0.5161      0.00000
     12      -0.0126      0.00000

 k-point     2 :      -0.2500    0.2500    0.2500
  band No.  band energies     occupation 
      1     -23.9496      2.00000
      2     -19.1664      2.00000
      3     -13.7586      2.00000
      4     -11.8248      2.00000
      5     -11.7668      2.00000
      6      -8.4116      2.00000
      7      -8.2581      2.00000
      8      -7.1467      2.00000
      9      -1.2188      0.00000
     10      -0.7228      0.00000
     11      -0.5161      0.00000
     12      -0.0102      0.00000

 k-point     3 :       0.2500   -0.2500    0.2500
  band No.  band energies     occupation 
      1     -23.9496      2.00000
      2     -19.1664      2.00000
      3     -13.7586      2.00000
      4     -11.8248      2.00000
      5     -11.7668      2.00000
      6      -8.4116      2.00000
      7      -8.2581      2.00000
      8      -7.1467      2.00000
      9      -1.2188      0.00000
     10      -0.7228      0.00000
     11      -0.5162      0.00000
     12      -0.0107      0.00000

 k-point     4 :      -0.2500   -0.2500    0.2500
  band No.  band energies     occupation 
      1     -23.9496      2.00000
      2     -19.1664      2.00000
      3     -13.7586      2.00000
      4     -11.8248      2.00000
      5     -11.7668      2.00000
      6      -8.4116      2.00000
      7      -8.2581      2.00000
      8      -7.1467      2.00000
      9      -1.2188      0.00000
     10      -0.7228      0.00000
     11      -0.5162      0.00000
     12      -0.0104      0.00000


--------------------------------------------------------------------------------------------------------


 soft charge-density along one line, spin component           1
         0         1         2         3         4         5         6         7         8         9
 total charge-density along one line
 
 pseudopotential strength for first ion, spin component:           1
 -2.362  -4.074  -0.002   0.000  -0.001
 -4.074  -6.941  -0.005   0.001  -0.002
 -0.002  -0.005  -0.330  -0.001   0.002
  0.000   0.001  -0.001  -0.334   0.000
 -0.001  -0.002   0.002   0.000  -0.333
 total augmentation occupancy for first ion, spin component:           1
  3.525  -0.634   0.410  -0.089   0.151
 -0.634   0.132  -0.076   0.017  -0.028
  0.410  -0.076   0.049  -0.009   0.016
 -0.089   0.017  -0.009   0.011  -0.004
  0.151  -0.028   0.016  -0.004   0.012


------------------------ aborting loop because EDIFF is reached ----------------------------------------


    CHARGE:  cpu time    6.5390: real time    6.5533
    FORLOC:  cpu time    2.5416: real time    2.5464
    FORNL :  cpu time   19.6030: real time   19.6445
    STRESS:  cpu time   57.5113: real time   57.6295
    FORCOR:  cpu time   19.4840: real time   19.5216
    FORHAR:  cpu time    6.6600: real time    6.6735
    MIXING:  cpu time    1.3958: real time    1.3981
    OFIELD:  cpu time    0.0000: real time    0.0000

  FORCE on cell =-STRESS in cart. coord.  units (eV):
  Direction    XX          YY          ZZ          XY          YZ          ZX
  --------------------------------------------------------------------------------------
  Alpha Z     0.04144     0.04144     0.04144
  Ewald     584.55620    61.66045    58.94688   -89.56542    18.70657   -70.51762
  Hartree   582.46311   299.70501   298.17226   -40.45390     6.94943   -28.82368
  E(xc)     -58.91335   -60.12793   -60.13591    -0.27447     0.06522    -0.24146
  Local   -1310.04980  -534.01636  -529.81529   122.90042   -23.42919    92.95917
  n-local   -26.03919   -24.59071   -24.56300     1.20942    -0.28570     1.33303
  augment     0.50784     0.96710     0.97057     0.08266    -0.01618     0.06190
  Kinetic   227.34696   255.29226   255.30202     6.25203    -2.07443     5.46939
  Fock        0.00000     0.00000     0.00000     0.00000     0.00000     0.00000
  -------------------------------------------------------------------------------------
  Total      -0.08678    -1.06872    -1.08103     0.15075    -0.08429     0.24072
  in kB      -0.00515    -0.06342    -0.06415     0.00895    -0.00500     0.01428
  external pressure =       -0.04 kB  Pullay stress =        0.00 kB


 VOLUME and BASIS-vectors are now :
 -----------------------------------------------------------------------------
  energy-cutoff  :      400.00
  volume of cell :    27000.00
      direct lattice vectors                 reciprocal lattice vectors
    30.000000000  0.000000000  0.000000000     0.033333333  0.000000000  0.000000000
     0.000000000 30.000000000  0.000000000     0.000000000  0.033333333  0.000000000
     0.000000000  0.000000000 30.000000000     0.000000000  0.000000000  0.033333333

  length of vectors
    30.000000000 30.000000000 30.000000000     0.033333333  0.033333333  0.033333333


 FORCES acting on ions
    electron-ion (+dipol)            ewald-force                    non-local-force                 convergence-correction
 -----------------------------------------------------------------------------------------------
   0.354E+02 0.557E+02 -.130E+02   -.375E+02 -.610E+02 0.141E+02   0.192E+01 0.525E+01 -.114E+01   -.554E-04 0.122E-03 -.364E-04
   0.308E+02 -.171E+02 0.574E+02   -.325E+02 0.186E+02 -.627E+02   0.146E+01 -.144E+01 0.532E+01   -.671E-04 -.364E-04 0.114E-03
   0.361E+02 -.403E+02 -.394E+02   -.382E+02 0.440E+02 0.431E+02   0.233E+01 -.368E+01 -.365E+01   -.142E-04 -.105E-03 -.110E-03
   0.122E+03 -.108E+02 -.468E+01   -.130E+03 0.110E+02 0.438E+01   0.760E+01 -.227E+00 0.240E+00   -.849E-03 0.525E-04 0.105E-04
   -.218E+03 0.564E+02 0.528E+02   0.242E+03 -.640E+02 -.604E+02   -.236E+02 0.788E+01 0.786E+01   0.656E-03 -.292E-03 -.312E-03
   0.191E+01 -.459E+02 -.550E+02   -.364E+01 0.514E+02 0.614E+02   0.170E+01 -.570E+01 -.673E+01   -.149E-02 0.408E-03 0.389E-03
 -----------------------------------------------------------------------------------------------
   0.861E+01 -.208E+01 -.192E+01   0.000E+00 -.711E-14 0.000E+00   -.861E+01 0.207E+01 0.190E+01   -.182E-02 0.148E-03 0.553E-04
 
 
 POSITION                                       TOTAL-FORCE (eV/Angst)
 -----------------------------------------------------------------------------------
     14.14353     14.05929     15.27136        -0.203074      0.026156      0.024740
     14.23051     15.34848     14.02754        -0.236808      0.028315      0.018847
     14.07779     15.78497     15.76172         0.194551     -0.003529      0.020591
     14.51346     15.06886     15.05058        -0.021879     -0.031062     -0.051990
     17.02276     14.69148     14.76854         0.294640      0.199510      0.259144
     15.93217     15.01837     15.08654        -0.027431     -0.219389     -0.271332
 -----------------------------------------------------------------------------------
    total drift:                               -0.004172     -0.003934     -0.013509


--------------------------------------------------------------------------------------------------------



  FREE ENERGIE OF THE ION-ELECTRON SYSTEM (eV)
  ---------------------------------------------------
  free  energy   TOTEN  =       -35.53227746 eV

  energy  without entropy=      -35.53227746  energy(sigma->0) =      -35.53227746
 


--------------------------------------------------------------------------------------------------------


    POTLOK:  cpu time   16.1835: real time   16.2157


--------------------------------------------------------------------------------------------------------


 NEB: the previous image is higher in energy: F
 NEB: the next image is higher in energy    : T
 NEB: only next energy greater

 NEB: Tangent
 ----------------------------------------------
      0.25811     -0.04162     -0.10621
      0.28884      0.01607     -0.00143
     -0.21217     -0.07154     -0.01333
      0.06056      0.06558      0.07293
     -0.44034     -0.33279     -0.39140
      0.09578      0.34166      0.43512

 NEB: forces: par spring, perp REAL, dneb     0.069947    0.123423    0.000000
 NEB: distance to prev, next image, angle between     0.182279    0.168290  164.139052
 NEB: projections on to tangent (spring, REAL)    -0.069947   -0.665768

 stress matrix after NEB project (eV)
     -0.08678      0.15075      0.24072
      0.15075     -1.06872     -0.08429
      0.24072     -0.08429     -1.08103
  FORCES: max atom, RMS     0.083263    0.057916
  FORCE total and by dimension    0.141866    0.068137
  Stress total and by dimension    1.579203    1.081028
 
 OPT: Flag T
 OPT: FIRE Step
 OPT: FIRE, TIMESTEP      0.10000
 OPT: FIRE, alpha         0.10000


--------------------------------------------------------------------------------------------------------


    WAVPRE:  cpu time    8.0178: real time    9.2663
 FEWALD executed in parallel
    FEWALD:  cpu time    0.0000: real time    0.0003
    ORTHCH:  cpu time    7.2009: real time    7.5366
     LOOP+:  cpu time 2808.3391: real time 2817.1244


----------------------------------------- Iteration    2(   1)  ---------------------------------------


    POTLOK:  cpu time   23.6404: real time   23.6989
    SETDIJ:  cpu time    0.0060: real time    0.0066
     EDDAV:  cpu time   93.1148: real time   93.3392
       DOS:  cpu time    0.0010: real time    0.0002
    CHARGE:  cpu time    7.0459: real time    7.0630
    MIXING:  cpu time    0.6629: real time    0.6643
    --------------------------------------------
      LOOP:  cpu time  124.4731: real time  124.7745

 eigenvalue-minimisations  :   120
 total energy-change (2. order) :-0.7446815E-03  (-0.1372426E-03)
 number of electron      15.9999989 magnetization 
 augmentation part        0.4479644 magnetization 

 Broyden mixing:
  rms(total) = 0.11482E-02    rms(broyden)= 0.11445E-02
  rms(prec ) = 0.11694E-02
  weight for this iteration     100.00

 Free energy of the ion-electron system (eV)
  ---------------------------------------------------
  alpha Z        PSCENC =         0.04144063
  Ewald energy   TEWEN  =       705.14870128
  -Hartree energ DENC   =     -1180.32028127
  -exchange      EXHF   =         0.00000000
  -V(xc)+E(xc)   XCENC  =        54.86573071
  PAW double counting   =      1325.85451027    -1328.72001644
  entropy T*S    EENTRO =         0.00000000
  eigenvalues    EBANDS =      -208.56836589
  atomic energy  EATOM  =       596.16534815
  Solvation  Ediel_sol  =         0.00000000
  ---------------------------------------------------
  free energy    TOTEN  =       -35.53293256 eV

  energy without entropy =      -35.53293256  energy(sigma->0) =      -35.53293256


--------------------------------------------------------------------------------------------------------




----------------------------------------- Iteration    2(   2)  ---------------------------------------


    POTLOK:  cpu time   24.6483: real time   24.7060
    SETDIJ:  cpu time    0.0060: real time    0.0066
     EDDAV:  cpu time   79.6489: real time   79.8376
       DOS:  cpu time    0.0000: real time    0.0002
    CHARGE:  cpu time    7.2179: real time    7.2350
    MIXING:  cpu time    0.7369: real time    0.7391
    --------------------------------------------
      LOOP:  cpu time  112.2599: real time  112.5278

 eigenvalue-minimisations  :    96
 total energy-change (2. order) :-0.8534309E-05  (-0.1536112E-05)
 number of electron      15.9999989 magnetization 
 augmentation part        0.4479927 magnetization 

 Broyden mixing:
  rms(total) = 0.64547E-03    rms(broyden)= 0.64515E-03
  rms(prec ) = 0.65738E-03
  weight for this iteration     100.00

 eigenvalues of (default mixing * dielectric matrix)
  average eigenvalue GAMMA=   1.6268
  1.6268

 Free energy of the ion-electron system (eV)
  ---------------------------------------------------
  alpha Z        PSCENC =         0.04144063
  Ewald energy   TEWEN  =       705.14870128
  -Hartree energ DENC   =     -1180.31745819
  -exchange      EXHF   =         0.00000000
  -V(xc)+E(xc)   XCENC  =        54.86560485
  PAW double counting   =      1325.86372232    -1328.72924314
  entropy T*S    EENTRO =         0.00000000
  eigenvalues    EBANDS =      -208.57105699
  atomic energy  EATOM  =       596.16534815
  Solvation  Ediel_sol  =         0.00000000
  ---------------------------------------------------
  free energy    TOTEN  =       -35.53294110 eV

  energy without entropy =      -35.53294110  energy(sigma->0) =      -35.53294110


--------------------------------------------------------------------------------------------------------




----------------------------------------- Iteration    2(   3)  ---------------------------------------


    POTLOK:  cpu time   26.9599: real time   27.0242
    SETDIJ:  cpu time    0.0080: real time    0.0074
     EDDAV:  cpu time   72.8869: real time   73.0699
       DOS:  cpu time    0.0000: real time    0.0002
    CHARGE:  cpu time    7.3289: real time    7.3468
    MIXING:  cpu time    0.8589: real time    0.8602
    --------------------------------------------
      LOOP:  cpu time  108.0436: real time  108.3130

 eigenvalue-minimisations  :    88
 total energy-change (2. order) :-0.1143723E-04  (-0.3304594E-06)
 number of electron      15.9999989 magnetization 
 augmentation part        0.4480029 magnetization 

 Broyden mixing:
  rms(total) = 0.23350E-03    rms(broyden)= 0.23337E-03
  rms(prec ) = 0.23871E-03
  weight for this iteration     100.00

 eigenvalues of (default mixing * dielectric matrix)
  average eigenvalue GAMMA=   1.6563
  1.1182  2.1944

 Free energy of the ion-electron system (eV)
  ---------------------------------------------------
  alpha Z        PSCENC =         0.04144063
  Ewald energy   TEWEN  =       705.14870128
  -Hartree energ DENC   =     -1180.31942730
  -exchange      EXHF   =         0.00000000
  -V(xc)+E(xc)   XCENC  =        54.86563729
  PAW double counting   =      1325.90358909    -1328.76917098
  entropy T*S    EENTRO =         0.00000000
  eigenvalues    EBANDS =      -208.56907069
  atomic energy  EATOM  =       596.16534815
  Solvation  Ediel_sol  =         0.00000000
  ---------------------------------------------------
  free energy    TOTEN  =       -35.53295253 eV

  energy without entropy =      -35.53295253  energy(sigma->0) =      -35.53295253


--------------------------------------------------------------------------------------------------------




----------------------------------------- Iteration    2(   4)  ---------------------------------------


    POTLOK:  cpu time   28.0447: real time   28.1114
    SETDIJ:  cpu time    0.0050: real time    0.0065
     EDDAV:  cpu time   57.1733: real time   57.3068
[...]
  Solvation  Ediel_sol  =         0.00000000
  ---------------------------------------------------
  free energy    TOTEN  =       -35.53623575 eV

  energy without entropy =      -35.53623575  energy(sigma->0) =      -35.53623575


--------------------------------------------------------------------------------------------------------




----------------------------------------- Iteration   28(   2)  ---------------------------------------


    POTLOK:  cpu time   20.2429: real time   20.2889
    SETDIJ:  cpu time    0.0070: real time    0.0067
     EDDAV:  cpu time   45.6311: real time   45.7361
       DOS:  cpu time    0.0000: real time    0.0002
    CHARGE:  cpu time    5.9451: real time    5.9592
    MIXING:  cpu time    0.5639: real time    0.5649
    --------------------------------------------
      LOOP:  cpu time   72.3930: real time   72.5611

 eigenvalue-minimisations  :    64
 total energy-change (2. order) : 0.2725919E-06  (-0.9112762E-06)
 number of electron      15.9999999 magnetization 
 augmentation part        0.4481833 magnetization 

 Broyden mixing:
  rms(total) = 0.42276E-03    rms(broyden)= 0.42254E-03
  rms(prec ) = 0.43132E-03
  weight for this iteration     100.00

 eigenvalues of (default mixing * dielectric matrix)
  average eigenvalue GAMMA=   1.1979
  1.1979

 Free energy of the ion-electron system (eV)
  ---------------------------------------------------
  alpha Z        PSCENC =         0.04144063
  Ewald energy   TEWEN  =       705.16139072
  -Hartree energ DENC   =     -1180.31008301
  -exchange      EXHF   =         0.00000000
  -V(xc)+E(xc)   XCENC  =        54.86786751
  PAW double counting   =      1326.35832454    -1329.22419495
  entropy T*S    EENTRO =         0.00000000
  eigenvalues    EBANDS =      -208.59632907
  atomic energy  EATOM  =       596.16534815
  Solvation  Ediel_sol  =         0.00000000
  ---------------------------------------------------
  free energy    TOTEN  =       -35.53623548 eV

  energy without entropy =      -35.53623548  energy(sigma->0) =      -35.53623548


--------------------------------------------------------------------------------------------------------




----------------------------------------- Iteration   28(   3)  ---------------------------------------


    POTLOK:  cpu time   21.2708: real time   21.3198
    SETDIJ:  cpu time    0.0070: real time    0.0068
     EDDAV:  cpu time   42.0866: real time   42.1836
       DOS:  cpu time    0.0000: real time    0.0002
    CHARGE:  cpu time    5.5072: real time    5.5206
    MIXING:  cpu time    0.6079: real time    0.6101
    --------------------------------------------
      LOOP:  cpu time   69.4824: real time   69.6458

 eigenvalue-minimisations  :    48
 total energy-change (2. order) : 0.5437187E-07  (-0.1491157E-06)
 number of electron      15.9999999 magnetization 
 augmentation part        0.4481839 magnetization 

 Broyden mixing:
  rms(total) = 0.22534E-03    rms(broyden)= 0.22528E-03
  rms(prec ) = 0.22884E-03
  weight for this iteration     100.00

 eigenvalues of (default mixing * dielectric matrix)
  average eigenvalue GAMMA=   1.5560
  1.1183  1.9938

 Free energy of the ion-electron system (eV)
  ---------------------------------------------------
  alpha Z        PSCENC =         0.04144063
  Ewald energy   TEWEN  =       705.16139072
  -Hartree energ DENC   =     -1180.31557628
  -exchange      EXHF   =         0.00000000
  -V(xc)+E(xc)   XCENC  =        54.86815085
  PAW double counting   =      1326.46410446    -1329.33008362
  entropy T*S    EENTRO =         0.00000000
  eigenvalues    EBANDS =      -208.59101033
  atomic energy  EATOM  =       596.16534815
  Solvation  Ediel_sol  =         0.00000000
  ---------------------------------------------------
  free energy    TOTEN  =       -35.53623543 eV

  energy without entropy =      -35.53623543  energy(sigma->0) =      -35.53623543


--------------------------------------------------------------------------------------------------------




----------------------------------------- Iteration   28(   4)  ---------------------------------------


    POTLOK:  cpu time   19.2701: real time   19.3139
    SETDIJ:  cpu time    0.0070: real time    0.0064
     EDDAV:  cpu time   40.0929: real time   40.1842
       DOS:  cpu time    0.0000: real time    0.0002
    CHARGE:  cpu time    5.6731: real time    5.6861
    MIXING:  cpu time    0.6729: real time    0.6738
    --------------------------------------------
      LOOP:  cpu time   65.7180: real time   65.8688

 eigenvalue-minimisations  :    48
 total energy-change (2. order) :-0.5406935E-07  (-0.6329323E-07)
 number of electron      15.9999999 magnetization 
 augmentation part        0.4481733 magnetization 

 Broyden mixing:
  rms(total) = 0.71218E-04    rms(broyden)= 0.71133E-04
  rms(prec ) = 0.72756E-04
  weight for this iteration     100.00

 eigenvalues of (default mixing * dielectric matrix)
  average eigenvalue GAMMA=   1.5614
  2.0889  1.1347  1.4605

 Free energy of the ion-electron system (eV)
  ---------------------------------------------------
  alpha Z        PSCENC =         0.04144063
  Ewald energy   TEWEN  =       705.16139072
  -Hartree energ DENC   =     -1180.31937029
  -exchange      EXHF   =         0.00000000
  -V(xc)+E(xc)   XCENC  =        54.86834158
  PAW double counting   =      1326.58605912    -1329.45211914
  entropy T*S    EENTRO =         0.00000000
  eigenvalues    EBANDS =      -208.58732625
  atomic energy  EATOM  =       596.16534815
  Solvation  Ediel_sol  =         0.00000000
  ---------------------------------------------------
  free energy    TOTEN  =       -35.53623548 eV

  energy without entropy =      -35.53623548  energy(sigma->0) =      -35.53623548


--------------------------------------------------------------------------------------------------------




----------------------------------------- Iteration   28(   5)  ---------------------------------------


    POTLOK:  cpu time   20.2389: real time   20.2845
    SETDIJ:  cpu time    0.0060: real time    0.0063
     EDDAV:  cpu time   42.4605: real time   42.5590
       DOS:  cpu time    0.0000: real time    0.0002
    CHARGE:  cpu time    6.3070: real time    6.3208
    MIXING:  cpu time    0.8459: real time    0.8486
    --------------------------------------------
      LOOP:  cpu time   69.8604: real time   70.0246

 eigenvalue-minimisations  :    48
 total energy-change (2. order) :-0.1537774E-07  (-0.1356206E-07)
 number of electron      15.9999999 magnetization 
 augmentation part        0.4481742 magnetization 

 Broyden mixing:
  rms(total) = 0.31196E-04    rms(broyden)= 0.31179E-04
  rms(prec ) = 0.32382E-04
  weight for this iteration     100.00

 eigenvalues of (default mixing * dielectric matrix)
  average eigenvalue GAMMA=   1.5153
  2.0714  2.0714  1.0470  0.8714

 Free energy of the ion-electron system (eV)
  ---------------------------------------------------
  alpha Z        PSCENC =         0.04144063
  Ewald energy   TEWEN  =       705.16139072
  -Hartree energ DENC   =     -1180.31815138
  -exchange      EXHF   =         0.00000000
  -V(xc)+E(xc)   XCENC  =        54.86827434
  PAW double counting   =      1326.61594963    -1329.48199572
  entropy T*S    EENTRO =         0.00000000
  eigenvalues    EBANDS =      -208.58849186
  atomic energy  EATOM  =       596.16534815
  Solvation  Ediel_sol  =         0.00000000
  ---------------------------------------------------
  free energy    TOTEN  =       -35.53623550 eV

  energy without entropy =      -35.53623550  energy(sigma->0) =      -35.53623550


--------------------------------------------------------------------------------------------------------




----------------------------------------- Iteration   28(   6)  ---------------------------------------


    POTLOK:  cpu time   20.2769: real time   20.3241
    SETDIJ:  cpu time    0.0060: real time    0.0065
     EDDAV:  cpu time   38.6501: real time   38.7375
       DOS:  cpu time    0.0000: real time    0.0003
    --------------------------------------------
      LOOP:  cpu time   58.9350: real time   59.1261

 eigenvalue-minimisations  :    48
 total energy-change (2. order) :-0.2683828E-07  (-0.4498096E-08)
 number of electron      15.9999999 magnetization 
 augmentation part        0.4481742 magnetization 

 Free energy of the ion-electron system (eV)
  ---------------------------------------------------
  alpha Z        PSCENC =         0.04144063
  Ewald energy   TEWEN  =       705.16139072
  -Hartree energ DENC   =     -1180.31776090
  -exchange      EXHF   =         0.00000000
  -V(xc)+E(xc)   XCENC  =        54.86824910
  PAW double counting   =      1326.62826276    -1329.49430298
  entropy T*S    EENTRO =         0.00000000
  eigenvalues    EBANDS =      -208.58886300
  atomic energy  EATOM  =       596.16534815
  Solvation  Ediel_sol  =         0.00000000
  ---------------------------------------------------
  free energy    TOTEN  =       -35.53623552 eV

  energy without entropy =      -35.53623552  energy(sigma->0) =      -35.53623552


--------------------------------------------------------------------------------------------------------




 average (electrostatic) potential at core
  the test charge radii are     0.5201  0.6991  0.7089
  (the norm of the test charge is              1.0000)
       1 -43.0508       2 -43.0508       3 -43.0301       4 -60.4883       5 -59.4022
       6 -74.7986
 
 
 
 E-fermi :  -6.1791     XC(G=0):  -0.0600     alpha+bet : -0.0137


 k-point     1 :       0.2500    0.2500    0.2500
  band No.  band energies     occupation 
      1     -23.9495      2.00000
      2     -19.1710      2.00000
      3     -13.7650      2.00000
      4     -11.8225      2.00000
      5     -11.7670      2.00000
      6      -8.4122      2.00000
      7      -8.2618      2.00000
      8      -7.1452      2.00000
      9      -1.2087      0.00000
     10      -0.7200      0.00000
     11      -0.5188      0.00000
     12       0.0248      0.00000

 k-point     2 :      -0.2500    0.2500    0.2500
  band No.  band energies     occupation 
      1     -23.9495      2.00000
      2     -19.1710      2.00000
      3     -13.7650      2.00000
      4     -11.8225      2.00000
      5     -11.7670      2.00000
      6      -8.4122      2.00000
      7      -8.2618      2.00000
      8      -7.1452      2.00000
      9      -1.2087      0.00000
     10      -0.7200      0.00000
     11      -0.5187      0.00000
     12       0.0269      0.00000

 k-point     3 :       0.2500   -0.2500    0.2500
  band No.  band energies     occupation 
      1     -23.9495      2.00000
      2     -19.1710      2.00000
      3     -13.7650      2.00000
      4     -11.8225      2.00000
      5     -11.7670      2.00000
      6      -8.4122      2.00000
      7      -8.2618      2.00000
      8      -7.1452      2.00000
      9      -1.2087      0.00000
     10      -0.7200      0.00000
     11      -0.5187      0.00000
     12       0.0264      0.00000

 k-point     4 :      -0.2500   -0.2500    0.2500
  band No.  band energies     occupation 
      1     -23.9495      2.00000
      2     -19.1710      2.00000
      3     -13.7650      2.00000
      4     -11.8225      2.00000
      5     -11.7670      2.00000
      6      -8.4122      2.00000
      7      -8.2618      2.00000
      8      -7.1452      2.00000
      9      -1.2087      0.00000
     10      -0.7200      0.00000
     11      -0.5187      0.00000
     12       0.0266      0.00000


--------------------------------------------------------------------------------------------------------


 soft charge-density along one line, spin component           1
         0         1         2         3         4         5         6         7         8         9
 total charge-density along one line
 
 pseudopotential strength for first ion, spin component:           1
 -2.362  -4.074  -0.002   0.000  -0.001
 -4.074  -6.941  -0.005   0.001  -0.002
 -0.002  -0.005  -0.330  -0.001   0.002
  0.000   0.001  -0.001  -0.334   0.000
 -0.001  -0.002   0.002   0.000  -0.333
 total augmentation occupancy for first ion, spin component:           1
  3.524  -0.634   0.411  -0.079   0.155
 -0.634   0.132  -0.076   0.015  -0.029
  0.411  -0.076   0.049  -0.008   0.016
 -0.079   0.015  -0.008   0.010  -0.003
  0.155  -0.029   0.016  -0.003   0.012


------------------------ aborting loop because EDIFF is reached ----------------------------------------


    CHARGE:  cpu time    5.5152: real time    5.5271
    FORLOC:  cpu time    2.4156: real time    2.4213
    FORNL :  cpu time   18.7222: real time   18.7642
    STRESS:  cpu time   57.3793: real time   57.5089
    FORCOR:  cpu time   20.2309: real time   20.2744
    FORHAR:  cpu time    7.5389: real time    7.5559
    MIXING:  cpu time    0.7889: real time    0.7908
    OFIELD:  cpu time    0.0000: real time    0.0000

  FORCE on cell =-STRESS in cart. coord.  units (eV):
  Direction    XX          YY          ZZ          XY          YZ          ZX
  --------------------------------------------------------------------------------------
  Alpha Z     0.04144     0.04144     0.04144
  Ewald     581.96875    63.66845    59.52384   -95.34300    19.99769   -73.89426
  Hartree   581.25099   300.64941   298.41762   -43.61823     7.52033   -30.79909
  E(xc)     -58.92464   -60.12554   -60.13730    -0.28704     0.06910    -0.24769
  Local   -1306.41053  -536.82960  -530.58925   131.50809   -25.18506    98.14961
  n-local   -26.01097   -24.63257   -24.58373     1.21683    -0.30705     1.32422
  augment     0.50958     0.96495     0.97055     0.08806    -0.01730     0.06540
  Kinetic   227.50031   255.20284   255.29177     6.54656    -2.14608     5.60309
  Fock        0.00000     0.00000     0.00000     0.00000     0.00000     0.00000
  -------------------------------------------------------------------------------------
  Total      -0.07506    -1.06062    -1.06505     0.11127    -0.06837     0.20128
  in kB      -0.00445    -0.06294    -0.06320     0.00660    -0.00406     0.01194
  external pressure =       -0.04 kB  Pullay stress =        0.00 kB


 VOLUME and BASIS-vectors are now :
 -----------------------------------------------------------------------------
  energy-cutoff  :      400.00
  volume of cell :    27000.00
      direct lattice vectors                 reciprocal lattice vectors
    30.000000000  0.000000000  0.000000000     0.033333333  0.000000000  0.000000000
     0.000000000 30.000000000  0.000000000     0.000000000  0.033333333  0.000000000
     0.000000000  0.000000000 30.000000000     0.000000000  0.000000000  0.033333333

  length of vectors
    30.000000000 30.000000000 30.000000000     0.033333333  0.033333333  0.033333333


 FORCES acting on ions
    electron-ion (+dipol)            ewald-force                    non-local-force                 convergence-correction
 -----------------------------------------------------------------------------------------------
   0.360E+02 0.556E+02 -.117E+02   -.381E+02 -.609E+02 0.128E+02   0.197E+01 0.525E+01 -.101E+01   -.359E-04 -.184E-05 -.484E-05
   0.312E+02 -.191E+02 0.565E+02   -.329E+02 0.207E+02 -.618E+02   0.151E+01 -.161E+01 0.526E+01   -.373E-04 0.643E-05 -.100E-05
   0.352E+02 -.396E+02 -.409E+02   -.373E+02 0.432E+02 0.447E+02   0.226E+01 -.361E+01 -.379E+01   -.439E-04 -.296E-05 -.221E-05
   0.122E+03 -.122E+02 -.557E+01   -.130E+03 0.124E+02 0.535E+01   0.760E+01 -.323E+00 0.171E+00   -.237E-03 0.608E-05 -.166E-04
   -.217E+03 0.587E+02 0.539E+02   0.241E+03 -.666E+02 -.616E+02   -.235E+02 0.812E+01 0.795E+01   -.472E-04 -.507E-04 -.288E-04
   0.133E+01 -.456E+02 -.542E+02   -.302E+01 0.511E+02 0.605E+02   0.160E+01 -.569E+01 -.665E+01   0.129E-07 -.838E-04 -.794E-04
 -----------------------------------------------------------------------------------------------
   0.858E+01 -.215E+01 -.194E+01   0.000E+00 -.711E-14 0.711E-14   -.858E+01 0.215E+01 0.193E+01   -.401E-03 -.127E-03 -.133E-03
 
 
 POSITION                                       TOTAL-FORCE (eV/Angst)
 -----------------------------------------------------------------------------------
     14.13942     14.06050     15.25013        -0.197084      0.030946      0.023403
     14.22741     15.38315     14.04218        -0.216399      0.029636      0.019183
     14.09960     15.77135     15.78859         0.182441      0.011685      0.033405
     14.51953     15.07149     15.05336        -0.015826     -0.044386     -0.053434
     17.02328     14.66560     14.75377         0.330243      0.182329      0.241799
     15.93790     15.00358     15.07632        -0.083376     -0.210210     -0.264357
 -----------------------------------------------------------------------------------
    total drift:                               -0.001589     -0.000816     -0.014502


--------------------------------------------------------------------------------------------------------



  FREE ENERGIE OF THE ION-ELECTRON SYSTEM (eV)
  ---------------------------------------------------
  free  energy   TOTEN  =       -35.53623552 eV

  energy  without entropy=      -35.53623552  energy(sigma->0) =      -35.53623552
 
 d Force = 0.2839311E-03[ 0.278E-03, 0.290E-03]  d Energy = 0.2839686E-03-0.375E-07
 d Force =-0.2797792E-01[-0.280E-01,-0.280E-01]  d Ewald  =-0.2797792E-01-0.347E-09


--------------------------------------------------------------------------------------------------------


    POTLOK:  cpu time   20.2769: real time   20.3216


--------------------------------------------------------------------------------------------------------


 NEB: the previous image is higher in energy: F
 NEB: the next image is higher in energy    : T
 NEB: only next energy greater

 NEB: Tangent
 ----------------------------------------------
      0.26924     -0.03101     -0.00980
      0.30247     -0.07515     -0.03021
     -0.25416     -0.00390     -0.07218
      0.04110      0.06468      0.07929
     -0.45657     -0.28944     -0.38986
      0.07997      0.33923      0.42512

 NEB: forces: par spring, perp REAL, dneb     0.025215    0.067611    0.000000
 NEB: distance to prev, next image, angle between     0.192801    0.187758  160.810404
 NEB: projections on to tangent (spring, REAL)    -0.025215   -0.667278

 stress matrix after NEB project (eV)
     -0.07506      0.11127      0.20128
      0.11127     -1.06062     -0.06837
      0.20128     -0.06837     -1.06505
  FORCES: max atom, RMS     0.038223    0.029459
  FORCE total and by dimension    0.072160    0.037097
  Stress total and by dimension    1.542731    1.065049
 OPT: skip step - force has converged


--------------------------------------------------------------------------------------------------------


  
 reached required accuracy - stopping structural energy minimisation
     LOOP+:  cpu time  739.1306: real time  740.7837
    4ORBIT:  cpu time    0.0000: real time    0.0000

 total amount of memory used by VASP on root node  3203889. kBytes
========================================================================

   base      :      30000. kBytes
   nonlr-proj:        693. kBytes
   fftplans  :     924480. kBytes
   grid      :    1872000. kBytes
   one-center:         18. kBytes
   wavefun   :     376698. kBytes
 
  
  
 General timing and accounting informations for this job:
 ========================================================
  
                  Total CPU time used (sec):    22544.402
                            User time (sec):    22250.206
                          System time (sec):      294.196
                         Elapsed time (sec):    22605.864
  
                   Maximum memory used (kb):     4760036.
                   Average memory used (kb):           0.
  
                          Minor page faults:      2955671
                          Major page faults:            8
                 Voluntary context switches:         3678
