 vasp.5.4.1 24Jun15 (build Jan 13 2020 12:58:22) complex                        
  
 POSCAR found type information on POSCAR  H  C  N 
 03/POSCAR found :  3 types and       6 ions
 scaLAPACK will be used

 ----------------------------------------------------------------------------- 
|                                                                             |
|  ADVICE TO THIS USER RUNNING 'VASP/VAMP'   (HEAR YOUR MASTER'S VOICE ...):  |
|                                                                             |
|      You have a (more or less) 'small supercell' and for smaller cells      |
|      it is recommended  to use the reciprocal-space projection scheme!      |
|      The real space optimization is not  efficient for small cells and it   |
|      is also less accurate ...                                              |
|      Therefore set LREAL=.FALSE. in the  INCAR file                         |
|                                                                             |
 ----------------------------------------------------------------------------- 

 LDA part: xc-table for Pade appr. of Perdew
 POSCAR found type information on POSCAR  H  C  N 
 00/POSCAR found :  3 types and       6 ions
 POSCAR found type information on POSCAR  H  C  N 
 16/POSCAR found :  3 types and       6 ions
 Jacobian:    40.4401846379183     
 POSCAR, INCAR and KPOINTS ok, starting setup
 WARNING: small aliasing (wrap around) errors must be expected
 FFT: planning ...
 WAVECAR not read
 entering main loop
       N       E                     dE             d eps       ncg     rms          rms(c)
DAV:   1     0.113574098286E+03    0.11357E+03   -0.21389E+03   160   0.366E+02
DAV:   2    -0.406250175409E+01   -0.11764E+03   -0.11547E+03   192   0.109E+02
DAV:   3    -0.350802114399E+02   -0.31018E+02   -0.30861E+02   128   0.867E+01
DAV:   4    -0.388701047023E+02   -0.37899E+01   -0.37386E+01   128   0.308E+01
DAV:   5    -0.389800109093E+02   -0.10991E+00   -0.10920E+00   116   0.551E+00    0.104E+01
DAV:   6    -0.362925277728E+02    0.26875E+01   -0.44118E+00   116   0.148E+01    0.564E+00
DAV:   7    -0.356009038943E+02    0.69162E+00   -0.17850E+00   124   0.929E+00    0.230E+00
DAV:   8    -0.355287697544E+02    0.72134E-01   -0.16064E-01   128   0.307E+00    0.927E-01
DAV:   9    -0.355096284611E+02    0.19141E-01   -0.26392E-02   120   0.134E+00    0.224E-01
DAV:  10    -0.355094143870E+02    0.21407E-03   -0.45291E-03   128   0.522E-01    0.133E-01
DAV:  11    -0.355110580208E+02   -0.16436E-02   -0.14816E-03   104   0.316E-01    0.812E-02
DAV:  12    -0.355165421523E+02   -0.54841E-02   -0.30885E-03   112   0.422E-01    0.460E-02
DAV:  13    -0.355225821545E+02   -0.60400E-02   -0.16527E-03   112   0.252E-01    0.281E-02
DAV:  14    -0.355262254035E+02   -0.36432E-02   -0.44266E-04   128   0.114E-01    0.188E-02
DAV:  15    -0.355293029557E+02   -0.30776E-02   -0.28550E-04   128   0.806E-02    0.110E-02
DAV:  16    -0.355308684608E+02   -0.15655E-02   -0.16169E-04   128   0.574E-02    0.677E-03
DAV:  17    -0.355316322718E+02   -0.76381E-03   -0.28088E-05    96   0.392E-02    0.429E-03
DAV:  18    -0.355320111537E+02   -0.37888E-03   -0.26951E-05    96   0.252E-02    0.268E-03
DAV:  19    -0.355321878793E+02   -0.17673E-03   -0.95958E-06    88   0.195E-02    0.165E-03
DAV:  20    -0.355322774580E+02   -0.89579E-04   -0.35955E-06    84   0.122E-02
   1 F= -.35532277E+02 E0= -.35532277E+02  d E =-.355323E+02
damped:  g(F)=  0.000E+00 g(S)=  0.000E+00 dE (1.order)= 0.000E+00
 bond charge predicted
       N       E                     dE             d eps       ncg     rms          rms(c)
DAV:   1    -0.355329325607E+02   -0.74468E-03   -0.13724E-03   120   0.358E-01    0.115E-02
DAV:   2    -0.355329410950E+02   -0.85343E-05   -0.15361E-05    96   0.380E-02    0.645E-03
DAV:   3    -0.355329525323E+02   -0.11437E-04   -0.33046E-06    88   0.167E-02    0.234E-03
DAV:   4    -0.355329609416E+02   -0.84094E-05   -0.78207E-07    64   0.829E-03    0.770E-04
DAV:   5    -0.355329662076E+02   -0.52660E-05   -0.19544E-07    96   0.411E-03    0.398E-04
DAV:   6    -0.355329705992E+02   -0.43916E-05   -0.78768E-08    64   0.237E-03
   2 F= -.35532971E+02 E0= -.35532971E+02  d E =-.693141E-03
damped:  g(F)=  0.000E+00 g(S)=  0.000E+00 dE (1.order)= 0.000E+00
 bond charge predicted
       N       E                     dE             d eps       ncg     rms          rms(c)
DAV:   1    -0.355340728873E+02   -0.11067E-02   -0.42379E-03    96   0.629E-01    0.188E-02
DAV:   2    -0.355340731733E+02   -0.28596E-06   -0.36914E-05    68   0.577E-02    0.114E-02
DAV:   3    -0.355340773307E+02   -0.41574E-05   -0.12819E-05    80   0.327E-02    0.274E-03
DAV:   4    -0.355340781070E+02   -0.77632E-06   -0.28356E-06    48   0.157E-02    0.182E-03
DAV:   5    -0.355340789115E+02   -0.80447E-06   -0.62286E-07    68   0.781E-03    0.862E-04
DAV:   6    -0.355340798707E+02   -0.95925E-06   -0.33457E-07    72   0.530E-03
   3 F= -.35534080E+02 E0= -.35534080E+02  d E =-.110927E-02
damped:  g(F)=  0.000E+00 g(S)=  0.000E+00 dE (1.order)= 0.000E+00
 bond charge predicted
       N       E                     dE             d eps       ncg     rms          rms(c)
DAV:   1    -0.355355067589E+02   -0.14278E-02   -0.81678E-03    96   0.874E-01    0.250E-02
DAV:   2    -0.355355061617E+02    0.59718E-06   -0.66773E-05    64   0.773E-02    0.151E-02
DAV:   3    -0.355355107375E+02   -0.45758E-05   -0.21595E-05    84   0.417E-02    0.354E-03
DAV:   4    -0.355355112633E+02   -0.52585E-06   -0.51395E-06    48   0.207E-02    0.229E-03
DAV:   5    -0.355355115751E+02   -0.31173E-06   -0.11801E-06    64   0.106E-02    0.109E-03
DAV:   6    -0.355355120004E+02   -0.42531E-06   -0.59113E-07    80   0.700E-03
   4 F= -.35535512E+02 E0= -.35535512E+02  d E =-.143213E-02
damped:  g(F)=  0.000E+00 g(S)=  0.000E+00 dE (1.order)= 0.000E+00
 bond charge predicted
       N       E                     dE             d eps       ncg     rms          rms(c)
DAV:   1    -0.355370429152E+02   -0.15313E-02   -0.12612E-02    96   0.108E+00    0.302E-02
DAV:   2    -0.355370441790E+02   -0.12637E-05   -0.11010E-04    68   0.100E-01    0.179E-02
DAV:   3    -0.355370496549E+02   -0.54759E-05   -0.24173E-05    80   0.443E-02    0.492E-03
DAV:   4    -0.355370507364E+02   -0.10815E-05   -0.62743E-06    64   0.221E-02    0.195E-03
DAV:   5    -0.355370510595E+02   -0.32313E-06   -0.17755E-06    64   0.120E-02    0.101E-03
DAV:   6    -0.355370514175E+02   -0.35795E-06   -0.77120E-07    72   0.739E-03
   5 F= -.35537051E+02 E0= -.35537051E+02  d E =-.153942E-02
damped:  g(F)=  0.000E+00 g(S)=  0.000E+00 dE (1.order)= 0.000E+00
 bond charge predicted
       N       E                     dE             d eps       ncg     rms          rms(c)
DAV:   1    -0.355384283402E+02   -0.13773E-02   -0.15248E-02    96   0.117E+00    0.330E-02
DAV:   2    -0.355384300917E+02   -0.17516E-05   -0.13795E-04    80   0.109E-01    0.200E-02
DAV:   3    -0.355384378246E+02   -0.77329E-05   -0.35894E-05    76   0.543E-02    0.462E-03
DAV:   4    -0.355384388758E+02   -0.10512E-05   -0.93182E-06    48   0.266E-02    0.285E-03
DAV:   5    -0.355384391707E+02   -0.29490E-06   -0.23821E-06    64   0.143E-02    0.145E-03
DAV:   6    -0.355384395788E+02   -0.40805E-06   -0.12008E-06    64   0.956E-03
   6 F= -.35538440E+02 E0= -.35538440E+02  d E =-.138816E-02
damped:  g(F)=  0.000E+00 g(S)=  0.000E+00 dE (1.order)= 0.000E+00
 bond charge predicted
       N       E                     dE             d eps       ncg     rms          rms(c)
DAV:   1    -0.355394649916E+02   -0.10258E-02   -0.20105E-02    96   0.132E+00    0.372E-02
DAV:   2    -0.355394712893E+02   -0.62977E-05   -0.22938E-04    96   0.128E-01    0.225E-02
DAV:   3    -0.355394764053E+02   -0.51160E-05   -0.85954E-06    80   0.315E-02    0.791E-03
DAV:   4    -0.355394782617E+02   -0.18565E-05   -0.35470E-06    64   0.170E-02    0.186E-03
DAV:   5    -0.355394784815E+02   -0.21980E-06   -0.68311E-07    48   0.786E-03    0.884E-04
DAV:   6    -0.355394786992E+02   -0.21770E-06   -0.16309E-07    48   0.340E-03
   7 F= -.35539479E+02 E0= -.35539479E+02  d E =-.103912E-02
damped:  g(F)=  0.000E+00 g(S)=  0.000E+00 dE (1.order)= 0.000E+00
 bond charge predicted
       N       E                     dE             d eps       ncg     rms          rms(c)
DAV:   1    -0.355400292101E+02   -0.55073E-03   -0.35053E-02    96   0.172E+00    0.465E-02
DAV:   2    -0.355400379943E+02   -0.87843E-05   -0.38700E-04   112   0.165E-01    0.285E-02
DAV:   3    -0.355400469986E+02   -0.90043E-05   -0.15205E-05    80   0.415E-02    0.951E-03
DAV:   4    -0.355400506275E+02   -0.36289E-05   -0.59594E-06    64   0.214E-02    0.276E-03
DAV:   5    -0.355400510587E+02   -0.43118E-06   -0.11766E-06    48   0.101E-02    0.111E-03
DAV:   6    -0.355400514261E+02   -0.36744E-06   -0.26988E-07    52   0.436E-03
   8 F= -.35540051E+02 E0= -.35540051E+02  d E =-.572727E-03
damped:  g(F)=  0.000E+00 g(S)=  0.000E+00 dE (1.order)= 0.000E+00
 bond charge predicted
       N       E                     dE             d eps       ncg     rms          rms(c)
DAV:   1    -0.355398195024E+02    0.23156E-03   -0.67405E-02    96   0.237E+00    0.629E-02
DAV:   2    -0.355398340199E+02   -0.14517E-04   -0.75210E-04   112   0.228E-01    0.383E-02
DAV:   3    -0.355398462448E+02   -0.12225E-04   -0.28959E-05    92   0.579E-02    0.132E-02
DAV:   4    -0.355398549247E+02   -0.86800E-05   -0.13225E-05    68   0.316E-02    0.412E-03
DAV:   5    -0.355398560296E+02   -0.11048E-05   -0.27336E-06    64   0.155E-02    0.142E-03
DAV:   6    -0.355398567018E+02   -0.67223E-06   -0.50964E-07    48   0.605E-03
   9 F= -.35539857E+02 E0= -.35539857E+02  d E =0.194724E-03
damped:  g(F)=  0.000E+00 g(S)=  0.000E+00 dE (1.order)= 0.000E+00
 bond charge predicted
       N       E                     dE             d eps       ncg     rms          rms(c)
DAV:   1    -0.355385203916E+02    0.13356E-02   -0.13149E-01    96   0.329E+00    0.884E-02
DAV:   2    -0.355385444164E+02   -0.24025E-04   -0.15044E-03   112   0.318E-01    0.536E-02
DAV:   3    -0.355385634935E+02   -0.19077E-04   -0.58743E-05    80   0.821E-02    0.181E-02
DAV:   4    -0.355385806705E+02   -0.17177E-04   -0.26418E-05    64   0.444E-02    0.597E-03
DAV:   5    -0.355385836110E+02   -0.29405E-05   -0.54227E-06    64   0.215E-02    0.194E-03
DAV:   6    -0.355385851100E+02   -0.14990E-05   -0.10449E-06    48   0.855E-03
  10 F= -.35538585E+02 E0= -.35538585E+02  d E =0.127159E-02
damped:  g(F)=  0.000E+00 g(S)=  0.000E+00 dE (1.order)= 0.000E+00
 bond charge predicted
       N       E                     dE             d eps       ncg     rms          rms(c)
DAV:   1    -0.355360864502E+02    0.24972E-02   -0.24366E-01    96   0.445E+00    0.122E-01
DAV:   2    -0.355361237921E+02   -0.37342E-04   -0.28693E-03   112   0.436E-01    0.742E-02
DAV:   3    -0.355361540813E+02   -0.30289E-04   -0.11037E-04    80   0.111E-01    0.262E-02
DAV:   4    -0.355361892987E+02   -0.35217E-04   -0.46547E-05    64   0.592E-02    0.812E-03
DAV:   5    -0.355361951190E+02   -0.58203E-05   -0.93750E-06    64   0.271E-02    0.292E-03
DAV:   6    -0.355361981368E+02   -0.30179E-05   -0.21516E-06    56   0.121E-02
  11 F= -.35536198E+02 E0= -.35536198E+02  d E =0.238697E-02
damped:  g(F)=  0.000E+00 g(S)=  0.000E+00 dE (1.order)= 0.000E+00
 bond charge predicted
       N       E                     dE             d eps       ncg     rms          rms(c)
DAV:   1    -0.355332716835E+02    0.29234E-02   -0.36633E-01    96   0.565E+00    0.166E-01
DAV:   2    -0.355332899725E+02   -0.18289E-04   -0.56939E-03    96   0.633E-01    0.964E-02
DAV:   3    -0.355332575685E+02    0.32404E-04   -0.32077E-04   128   0.180E-01    0.436E-02
DAV:   4    -0.355333194687E+02   -0.61900E-04   -0.11814E-04    96   0.108E-01    0.121E-02
DAV:   5    -0.355333271339E+02   -0.76652E-05   -0.21800E-05    92   0.469E-02    0.543E-03
DAV:   6    -0.355333328500E+02   -0.57162E-05   -0.48475E-06    64   0.199E-02
  12 F= -.35533333E+02 E0= -.35533333E+02  d E =0.286529E-02
damped:  g(F)=  0.000E+00 g(S)=  0.000E+00 dE (1.order)= 0.000E+00
 bond charge predicted
       N       E                     dE             d eps       ncg     rms          rms(c)
DAV:   1    -0.355344329371E+02   -0.11058E-02   -0.63528E-02    96   0.241E+00    0.130E-01
DAV:   2    -0.355342798515E+02    0.15309E-03   -0.17246E-03    96   0.384E-01    0.600E-02
DAV:   3    -0.355342226112E+02    0.57240E-04   -0.28189E-04   128   0.164E-01    0.280E-02
DAV:   4    -0.355342250998E+02   -0.24887E-05   -0.68819E-05    68   0.885E-02    0.892E-03
DAV:   5    -0.355342279849E+02   -0.28851E-05   -0.10854E-05    96   0.332E-02    0.382E-03
DAV:   6    -0.355342294872E+02   -0.15023E-05   -0.19821E-06    96   0.139E-02
  13 F= -.35534229E+02 E0= -.35534229E+02  d E =-.896637E-03
damped:  g(F)=  0.000E+00 g(S)=  0.000E+00 dE (1.order)= 0.000E+00
 bond charge predicted
       N       E                     dE             d eps       ncg     rms          rms(c)
DAV:   1    -0.355344100565E+02   -0.18207E-03   -0.97361E-04   124   0.299E-01    0.151E-02
DAV:   2    -0.355344090868E+02    0.96973E-06   -0.22428E-05    80   0.465E-02    0.706E-03
DAV:   3    -0.355344096544E+02   -0.56760E-06   -0.56918E-06    64   0.241E-02    0.312E-03
DAV:   4    -0.355344111743E+02   -0.15199E-05   -0.28300E-06    80   0.158E-02    0.113E-03
DAV:   5    -0.355344119602E+02   -0.78589E-06   -0.52702E-07    48   0.717E-03    0.578E-04
DAV:   6    -0.355344126598E+02   -0.69959E-06   -0.12988E-07    64   0.337E-03
  14 F= -.35534413E+02 E0= -.35534413E+02  d E =-.183173E-03
damped:  g(F)=  0.000E+00 g(S)=  0.000E+00 dE (1.order)= 0.000E+00
 bond charge predicted
       N       E                     dE             d eps       ncg     rms          rms(c)
DAV:   1    -0.355346303828E+02   -0.21842E-03   -0.26162E-03    96   0.491E-01    0.249E-02
DAV:   2    -0.355346242115E+02    0.61713E-05   -0.60316E-05    64   0.764E-02    0.116E-02
DAV:   3    -0.355346229529E+02    0.12586E-05   -0.15338E-05    96   0.394E-02    0.503E-03
DAV:   4    -0.355346236654E+02   -0.71252E-06   -0.74442E-06    64   0.258E-02    0.186E-03
DAV:   5    -0.355346239103E+02   -0.24482E-06   -0.13252E-06    96   0.116E-02    0.982E-04
DAV:   6    -0.355346240948E+02   -0.18454E-06   -0.28933E-07    64   0.535E-03
  15 F= -.35534624E+02 E0= -.35534624E+02  d E =-.211435E-03
damped:  g(F)=  0.000E+00 g(S)=  0.000E+00 dE (1.order)= 0.000E+00
 bond charge predicted
       N       E                     dE             d eps       ncg     rms          rms(c)
DAV:   1    -0.355347998048E+02   -0.17589E-03   -0.23842E-03    96   0.471E-01    0.230E-02
DAV:   2    -0.355347941939E+02    0.56109E-05   -0.54741E-05    64   0.722E-02    0.107E-02
DAV:   3    -0.355347928234E+02    0.13704E-05   -0.13161E-05    96   0.362E-02    0.472E-03
DAV:   4    -0.355347930188E+02   -0.19534E-06   -0.61103E-06    64   0.234E-02    0.171E-03
DAV:   5    -0.355347930747E+02   -0.55921E-07   -0.10884E-06    48   0.105E-02    0.917E-04
DAV:   6    -0.355347931611E+02   -0.86422E-07   -0.24875E-07    80   0.489E-03
  16 F= -.35534793E+02 E0= -.35534793E+02  d E =-.169066E-03
damped:  g(F)=  0.000E+00 g(S)=  0.000E+00 dE (1.order)= 0.000E+00
 bond charge predicted
       N       E                     dE             d eps       ncg     rms          rms(c)
DAV:   1    -0.355348125098E+02   -0.19435E-04   -0.15488E-05    48   0.386E-02    0.178E-03
DAV:   2    -0.355348126985E+02   -0.18866E-06   -0.96326E-07    48   0.964E-03    0.947E-04
DAV:   3    -0.355348128297E+02   -0.13120E-06   -0.11702E-07    48   0.320E-03    0.591E-04
DAV:   4    -0.355348130958E+02   -0.26615E-06   -0.96763E-08    64   0.291E-03    0.216E-04
DAV:   5    -0.355348131748E+02   -0.78964E-07   -0.35258E-08    48   0.136E-03    0.161E-04
DAV:   6    -0.355348132775E+02   -0.10268E-06   -0.23010E-08    48   0.636E-04
  17 F= -.35534813E+02 E0= -.35534813E+02  d E =-.201163E-04
damped:  g(F)=  0.000E+00 g(S)=  0.000E+00 dE (1.order)= 0.000E+00
 bond charge predicted
       N       E                     dE             d eps       ncg     rms          rms(c)
DAV:   1    -0.355348486565E+02   -0.35482E-04   -0.56338E-05    48   0.735E-02    0.332E-03
DAV:   2    -0.355348488513E+02   -0.19477E-06   -0.34646E-06    68   0.184E-02    0.178E-03
DAV:   3    -0.355348488790E+02   -0.27694E-07   -0.38538E-07    48   0.611E-03    0.112E-03
DAV:   4    -0.355348489991E+02   -0.12007E-06   -0.30383E-07    76   0.570E-03    0.394E-04
DAV:   5    -0.355348490396E+02   -0.40529E-07   -0.84506E-08    48   0.270E-03    0.292E-04
DAV:   6    -0.355348490819E+02   -0.42308E-07   -0.31923E-08    48   0.113E-03
  18 F= -.35534849E+02 E0= -.35534849E+02  d E =-.358044E-04
damped:  g(F)=  0.000E+00 g(S)=  0.000E+00 dE (1.order)= 0.000E+00
 bond charge predicted
       N       E                     dE             d eps       ncg     rms          rms(c)
DAV:   1    -0.355348980004E+02   -0.48961E-04   -0.10690E-04    64   0.101E-01    0.455E-03
DAV:   2    -0.355348981687E+02   -0.16825E-06   -0.65934E-06    68   0.255E-02    0.246E-03
DAV:   3    -0.355348980870E+02    0.81695E-07   -0.72577E-07    72   0.848E-03    0.156E-03
DAV:   4    -0.355348980662E+02    0.20786E-07   -0.57242E-07    68   0.793E-03    0.551E-04
DAV:   5    -0.355348980778E+02   -0.11606E-07   -0.14984E-07    48   0.377E-03    0.411E-04
DAV:   6    -0.355348980892E+02   -0.11465E-07   -0.47963E-08    48   0.159E-03
  19 F= -.35534898E+02 E0= -.35534898E+02  d E =-.490073E-04
damped:  g(F)=  0.000E+00 g(S)=  0.000E+00 dE (1.order)= 0.000E+00
 bond charge predicted
       N       E                     dE             d eps       ncg     rms          rms(c)
DAV:   1    -0.355349567987E+02   -0.58721E-04   -0.14619E-04    48   0.118E-01    0.527E-03
DAV:   2    -0.355349569647E+02   -0.16600E-06   -0.90362E-06    64   0.299E-02    0.288E-03
DAV:   3    -0.355349568240E+02    0.14071E-06   -0.99978E-07    48   0.999E-03    0.183E-03
DAV:   4    -0.355349567571E+02    0.66864E-07   -0.78439E-07    80   0.931E-03    0.652E-04
DAV:   5    -0.355349567673E+02   -0.10181E-07   -0.20064E-07    48   0.443E-03    0.489E-04
DAV:   6    -0.355349567778E+02   -0.10522E-07   -0.60985E-08    48   0.189E-03
  20 F= -.35534957E+02 E0= -.35534957E+02  d E =-.586886E-04
damped:  g(F)=  0.000E+00 g(S)=  0.000E+00 dE (1.order)= 0.000E+00
 bond charge predicted
       N       E                     dE             d eps       ncg     rms          rms(c)
DAV:   1    -0.355350250410E+02   -0.68274E-04   -0.15221E-04    48   0.121E-01    0.528E-03
DAV:   2    -0.355350252456E+02   -0.20465E-06   -0.94032E-06    64   0.306E-02    0.294E-03
DAV:   3    -0.355350251067E+02    0.13891E-06   -0.10566E-06    48   0.103E-02    0.188E-03
DAV:   4    -0.355350250481E+02    0.58623E-07   -0.81907E-07    48   0.949E-03    0.673E-04
DAV:   5    -0.355350250618E+02   -0.13681E-07   -0.20887E-07    48   0.452E-03    0.510E-04
DAV:   6    -0.355350250776E+02   -0.15848E-07   -0.64920E-08    48   0.199E-03
  21 F= -.35535025E+02 E0= -.35535025E+02  d E =-.682998E-04
damped:  g(F)=  0.000E+00 g(S)=  0.000E+00 dE (1.order)= 0.000E+00
 bond charge predicted
       N       E                     dE             d eps       ncg     rms          rms(c)
DAV:   1    -0.355351037190E+02   -0.78657E-04   -0.11770E-04    48   0.107E-01    0.445E-03
DAV:   2    -0.355351038905E+02   -0.17146E-06   -0.71914E-06    56   0.269E-02    0.257E-03
DAV:   3    -0.355351037958E+02    0.94653E-07   -0.83700E-07    48   0.913E-03    0.166E-03
DAV:   4    -0.355351037706E+02    0.25219E-07   -0.63013E-07    48   0.823E-03    0.596E-04
DAV:   5    -0.355351037878E+02   -0.17155E-07   -0.16605E-07    48   0.395E-03    0.459E-04
DAV:   6    -0.355351038103E+02   -0.22520E-07   -0.58816E-08    48   0.182E-03
  22 F= -.35535104E+02 E0= -.35535104E+02  d E =-.787327E-04
damped:  g(F)=  0.000E+00 g(S)=  0.000E+00 dE (1.order)= 0.000E+00
 bond charge predicted
       N       E                     dE             d eps       ncg     rms          rms(c)
DAV:   1    -0.355352045910E+02   -0.10080E-03   -0.83762E-05    48   0.907E-02    0.336E-03
DAV:   2    -0.355352047417E+02   -0.15070E-06   -0.48637E-06    48   0.223E-02    0.208E-03
DAV:   3    -0.355352046997E+02    0.41957E-07   -0.61133E-07    48   0.770E-03    0.136E-03
DAV:   4    -0.355352047112E+02   -0.11489E-07   -0.40703E-07    48   0.638E-03    0.493E-04
DAV:   5    -0.355352047323E+02   -0.21080E-07   -0.11575E-07    48   0.311E-03    0.390E-04
DAV:   6    -0.355352047619E+02   -0.29601E-07   -0.49945E-08    48   0.153E-03
  23 F= -.35535205E+02 E0= -.35535205E+02  d E =-.100952E-03
damped:  g(F)=  0.000E+00 g(S)=  0.000E+00 dE (1.order)= 0.000E+00
 bond charge predicted
       N       E                     dE             d eps       ncg     rms          rms(c)
DAV:   1    -0.355353351005E+02   -0.13037E-03   -0.59488E-05    48   0.769E-02    0.232E-03
DAV:   2    -0.355353352691E+02   -0.16860E-06   -0.29271E-06    48   0.175E-02    0.142E-03
DAV:   3    -0.355353353031E+02   -0.34011E-07   -0.47827E-07    48   0.630E-03    0.897E-04
DAV:   4    -0.355353353434E+02   -0.40219E-07   -0.17022E-07    48   0.348E-03    0.443E-04
DAV:   5    -0.355353353824E+02   -0.39082E-07   -0.62746E-08    48   0.166E-03    0.193E-04
DAV:   6    -0.355353354202E+02   -0.37775E-07   -0.35791E-08    48   0.872E-04
  24 F= -.35535335E+02 E0= -.35535335E+02  d E =-.130658E-03
damped:  g(F)=  0.000E+00 g(S)=  0.000E+00 dE (1.order)= 0.000E+00
 bond charge predicted
       N       E                     dE             d eps       ncg     rms          rms(c)
DAV:   1    -0.355355018094E+02   -0.16643E-03   -0.93595E-05    48   0.964E-02    0.257E-03
DAV:   2    -0.355355022180E+02   -0.40867E-06   -0.46918E-06    48   0.221E-02    0.151E-03
DAV:   3    -0.355355023193E+02   -0.10127E-06   -0.67640E-07    48   0.745E-03    0.860E-04
DAV:   4    -0.355355023691E+02   -0.49775E-07   -0.18892E-07    52   0.367E-03    0.208E-04
DAV:   5    -0.355355023885E+02   -0.19388E-07   -0.72703E-08    48   0.186E-03    0.149E-04
DAV:   6    -0.355355024075E+02   -0.19040E-07   -0.39216E-08    60   0.106E-03
  25 F= -.35535502E+02 E0= -.35535502E+02  d E =-.166987E-03
damped:  g(F)=  0.000E+00 g(S)=  0.000E+00 dE (1.order)= 0.000E+00
 bond charge predicted
       N       E                     dE             d eps       ncg     rms          rms(c)
DAV:   1    -0.355357072440E+02   -0.20486E-03   -0.22553E-04    48   0.150E-01    0.474E-03
DAV:   2    -0.355357081418E+02   -0.89784E-06   -0.12395E-05    84   0.356E-02    0.271E-03
DAV:   3    -0.355357082279E+02   -0.86106E-07   -0.15820E-06    48   0.117E-02    0.183E-03
DAV:   4    -0.355357082398E+02   -0.11914E-07   -0.49974E-07    92   0.721E-03    0.433E-04
DAV:   5    -0.355357082426E+02   -0.27421E-08   -0.17568E-07    48   0.352E-03    0.353E-04
DAV:   6    -0.355357082431E+02   -0.51296E-09   -0.57288E-08    48   0.168E-03
  26 F= -.35535708E+02 E0= -.35535708E+02  d E =-.205836E-03
damped:  g(F)=  0.000E+00 g(S)=  0.000E+00 dE (1.order)= 0.000E+00
 bond charge predicted
       N       E                     dE             d eps       ncg     rms          rms(c)
DAV:   1    -0.355359520113E+02   -0.24377E-03   -0.44499E-04    96   0.206E-01    0.788E-03
DAV:   2    -0.355359516051E+02    0.40622E-06   -0.85994E-06    64   0.274E-02    0.407E-03
DAV:   3    -0.355359515051E+02    0.99956E-07   -0.15105E-06    48   0.121E-02    0.212E-03
DAV:   4    -0.355359515326E+02   -0.27480E-07   -0.69339E-07    52   0.794E-03    0.685E-04
DAV:   5    -0.355359515373E+02   -0.47569E-08   -0.14725E-07    48   0.351E-03    0.322E-04
DAV:   6    -0.355359515533E+02   -0.15962E-07   -0.49650E-08    48   0.159E-03
  27 F= -.35535952E+02 E0= -.35535952E+02  d E =-.243310E-03
damped:  g(F)=  0.000E+00 g(S)=  0.000E+00 dE (1.order)= 0.000E+00
 bond charge predicted
       N       E                     dE             d eps       ncg     rms          rms(c)
DAV:   1    -0.355362357526E+02   -0.28422E-03   -0.52139E-04    96   0.222E-01    0.801E-03
DAV:   2    -0.355362354800E+02    0.27259E-06   -0.91128E-06    64   0.280E-02    0.423E-03
DAV:   3    -0.355362354256E+02    0.54372E-07   -0.14912E-06    48   0.119E-02    0.225E-03
DAV:   4    -0.355362354797E+02   -0.54069E-07   -0.63293E-07    48   0.764E-03    0.712E-04
DAV:   5    -0.355362354950E+02   -0.15378E-07   -0.13562E-07    48   0.333E-03    0.312E-04
DAV:   6    -0.355362355219E+02   -0.26838E-07   -0.44981E-08    48   0.150E-03
  28 F= -.35536236E+02 E0= -.35536236E+02  d E =-.283969E-03
damped:  g(F)=  0.000E+00 g(S)=  0.000E+00 dE (1.order)= 0.000E+00
 reached required accuracy - stopping structural energy minimisation
