unknown system                          
           1
    30.000000    0.000000    0.000000
     0.000000   30.000000    0.000000
     0.000000    0.000000   30.000000
   H    C    N 
   3   2   1
Direct configuration=     1
   0.47143454  0.46864330  0.50903252
   0.47432890  0.51162848  0.46759057
   0.46928225  0.52615036  0.52539499
   0.48378681  0.50229803  0.50168307
   0.56743611  0.48971653  0.49229316
   0.53108229  0.50060695  0.50288052
Direct configuration=     2
   0.47140499  0.46864611  0.50900592
   0.47428901  0.51165417  0.46760288
   0.46932494  0.52612276  0.52540686
   0.48379785  0.50229838  0.50167582
   0.56746007  0.48971427  0.49230721
   0.53109463  0.50059870  0.50287439
Direct configuration=     3
   0.47136745  0.46865301  0.50896449
   0.47423639  0.51169377  0.46762165
   0.46938347  0.52608781  0.52543166
   0.48381492  0.50229079  0.50166277
   0.56748985  0.48970818  0.49232526
   0.53111128  0.50058632  0.50286453
Direct configuration=     4
   0.47132875  0.46866207  0.50890746
   0.47417987  0.51174830  0.46764629
   0.46945353  0.52604842  0.52547316
   0.48383584  0.50227663  0.50164630
   0.56751672  0.48969583  0.49234448
   0.53113298  0.50056800  0.50284890
Direct configuration=     5
   0.47129670  0.46866691  0.50883608
   0.47413110  0.51181830  0.46767559
   0.46953036  0.52600447  0.52553144
   0.48385853  0.50226682  0.50163318
   0.56754331  0.48966985  0.49235590
   0.53114541  0.50054524  0.50282951
Direct configuration=     6
   0.47127747  0.46866351  0.50875458
   0.47409990  0.51190299  0.46770795
   0.46960835  0.52595702  0.52560376
   0.48387561  0.50226973  0.50162987
   0.56755462  0.48963003  0.49235729
   0.53115954  0.50051352  0.50280236
Direct configuration=     7
   0.47127665  0.46865203  0.50865820
   0.47409361  0.51201337  0.46774742
   0.46968789  0.52590536  0.52570025
   0.48388753  0.50228494  0.50163804
   0.56755683  0.48956236  0.49233680
   0.53116343  0.50047176  0.50276769
Direct configuration=     8
   0.47130052  0.46863826  0.50855188
   0.47412136  0.51215639  0.46779737
   0.46975991  0.52585670  0.52582822
   0.48389315  0.50230332  0.50165638
   0.56753821  0.48945722  0.49228248
   0.53116671  0.50041538  0.50272310
Direct configuration=     9
   0.47134671  0.46862715  0.50844631
   0.47418526  0.51234003  0.46786237
   0.46981813  0.52581326  0.52598860
   0.48389964  0.50232267  0.50168705
   0.56749851  0.48930013  0.49217458
   0.53117192  0.50034144  0.50267018
Direct configuration=    10
   0.47139277  0.46862016  0.50835842
   0.47426970  0.51256723  0.46794893
   0.46986841  0.52576347  0.52616390
   0.48392340  0.50236278  0.50174009
   0.56745239  0.48907590  0.49199247
   0.53118070  0.50024828  0.50261422
Direct configuration=    11
   0.47139682  0.46863934  0.50829813
   0.47432597  0.51281081  0.46806044
   0.46993267  0.52570286  0.52632538
   0.48395363  0.50240522  0.50179709
   0.56735840  0.48884396  0.49179281
   0.53129545  0.50011521  0.50253377
Direct configuration=    12
   0.47138927  0.46864611  0.50830203
   0.47431860  0.51280648  0.46806277
   0.46993818  0.52570386  0.52632130
   0.48396947  0.50239942  0.50179384
   0.56743520  0.48882278  0.49177119
   0.53120968  0.50013919  0.50255685
Direct configuration=    13
   0.47138638  0.46864753  0.50830305
   0.47431572  0.51280566  0.46806326
   0.46993991  0.52570399  0.52632034
   0.48396853  0.50239856  0.50179306
   0.56742822  0.48882667  0.49177485
   0.53122108  0.50013552  0.50255350
Direct configuration=    14
   0.47138076  0.46865039  0.50830512
   0.47431016  0.51280390  0.46806423
   0.46994328  0.52570426  0.52631831
   0.48396728  0.50239690  0.50179156
   0.56741731  0.48883318  0.49178086
   0.53123983  0.50012953  0.50254815
Direct configuration=    15
   0.47137214  0.46865497  0.50830860
   0.47430175  0.51280074  0.46806574
   0.46994853  0.52570472  0.52631474
   0.48396716  0.50239434  0.50178936
   0.56740879  0.48884007  0.49178685
   0.53125821  0.50012368  0.50254323
Direct configuration=    16
   0.47137168  0.46865524  0.50830884
   0.47430132  0.51280048  0.46806581
   0.46994883  0.52570476  0.52631446
   0.48396753  0.50239422  0.50178927
   0.56741012  0.48883979  0.49178649
   0.53125694  0.50012407  0.50254366
Direct configuration=    17
   0.47137075  0.46865578  0.50830935
   0.47430046  0.51279994  0.46806596
   0.46994944  0.52570485  0.52631390
   0.48396825  0.50239398  0.50178908
   0.56741266  0.48883926  0.49178580
   0.53125455  0.50012482  0.50254448
Direct configuration=    18
   0.47136930  0.46865660  0.50831010
   0.47429911  0.51279915  0.46806618
   0.46995039  0.52570497  0.52631307
   0.48396927  0.50239361  0.50178880
   0.56741626  0.48883860  0.49178492
   0.53125129  0.50012580  0.50254557
Direct configuration=    19
   0.47136727  0.46865771  0.50831115
   0.47429722  0.51279807  0.46806648
   0.46995170  0.52570515  0.52631194
   0.48397055  0.50239311  0.50178841
   0.56742062  0.48883792  0.49178394
   0.53124759  0.50012689  0.50254681
Direct configuration=    20
   0.47136458  0.46865914  0.50831250
   0.47429470  0.51279669  0.46806686
   0.46995346  0.52570539  0.52631049
   0.48397200  0.50239247  0.50178789
   0.56742535  0.48883744  0.49178307
   0.53124401  0.50012789  0.50254802
Direct configuration=    21
   0.47136123  0.46866089  0.50831415
   0.47429154  0.51279501  0.46806732
   0.46995564  0.52570570  0.52630875
   0.48397352  0.50239170  0.50178724
   0.56742987  0.48883732  0.49178250
   0.53124126  0.50012860  0.50254900
Direct configuration=    22
   0.47135686  0.46866310  0.50831629
   0.47428743  0.51279288  0.46806791
   0.46995848  0.52570611  0.52630655
   0.48397514  0.50239074  0.50178640
   0.56743411  0.48883776  0.49178236
   0.53123971  0.50012889  0.50254965
Direct configuration=    23
   0.47135138  0.46866581  0.50831894
   0.47428225  0.51279025  0.46806861
   0.46996204  0.52570665  0.52630387
   0.48397682  0.50238959  0.50178533
   0.56743758  0.48883897  0.49178284
   0.53124001  0.50012855  0.50254978
Direct configuration=    24
   0.47134465  0.46866906  0.50832220
   0.47427587  0.51278704  0.46806943
   0.46996642  0.52570736  0.52630064
   0.48397851  0.50238825  0.50178404
   0.56743992  0.48884112  0.49178411
   0.53124271  0.50012741  0.50254923
Direct configuration=    25
   0.47133642  0.46867294  0.50832621
   0.47426808  0.51278310  0.46807036
   0.46997179  0.52570831  0.52629675
   0.48398021  0.50238670  0.50178249
   0.56744102  0.48884434  0.49178626
   0.53124806  0.50012536  0.50254791
Direct configuration=    26
   0.47132635  0.46867761  0.50833121
   0.47425856  0.51277816  0.46807141
   0.46997844  0.52570963  0.52629202
   0.48398206  0.50238491  0.50178066
   0.56744140  0.48884860  0.49178916
   0.53125564  0.50012251  0.50254594
Direct configuration=    27
   0.47131400  0.46868326  0.50833759
   0.47424692  0.51277177  0.46807252
   0.46998675  0.52571156  0.52628618
   0.48398450  0.50238284  0.50177851
   0.56744280  0.48885344  0.49179225
   0.53126346  0.50011941  0.50254388
Direct configuration=    28
   0.47131400  0.46868326  0.50833759
   0.47424692  0.51277177  0.46807252
   0.46998675  0.52571156  0.52628618
   0.48398450  0.50238284  0.50177851
   0.56744280  0.48885344  0.49179225
   0.53126346  0.50011941  0.50254388
