   6   6   0   0
  0.4500000E+04  0.3000000E-08  0.3000000E-08  0.3000000E-08  0.0000000E+00
  1.000000000000000E-004
  CAR 
 unknown system                          
      2.02879962    -25.06384079  301     -6.73080134      1.00000000
    -25.064  0.0000E+00  0.0000E+00
    -24.974  0.0000E+00  0.0000E+00
    -24.883  0.0000E+00  0.0000E+00
    -24.793  0.0000E+00  0.0000E+00
    -24.703  0.0000E+00  0.0000E+00
    -24.612  0.0000E+00  0.0000E+00
    -24.522  0.0000E+00  0.0000E+00
    -24.432  0.0000E+00  0.0000E+00
    -24.341  0.0000E+00  0.0000E+00
    -24.251  0.0000E+00  0.0000E+00
    -24.161  0.3237E-15  0.2924E-16
    -24.070  0.4016E-13  0.3656E-14
    -23.980  0.3363E-11  0.3074E-12
    -23.890  0.1886E-09  0.1734E-10
    -23.800  0.7084E-08  0.6571E-09
    -23.709  0.1785E-06  0.1677E-07
    -23.619  0.3017E-05  0.2893E-06
    -23.529  0.3427E-04  0.3384E-05
    -23.438  0.2617E-03  0.2701E-04
    -23.348  0.1344E-02  0.1484E-03
    -23.258  0.4650E-02  0.5684E-03
    -23.167  0.1084E-01  0.1547E-02
    -23.077  0.1703E-01  0.3085E-02
    -22.987  0.1804E-01  0.4715E-02
    -22.896  0.1289E-01  0.5878E-02
    -22.806  0.6205E-02  0.6439E-02
    -22.716  0.2013E-02  0.6620E-02
    -22.626  0.4399E-03  0.6660E-02
    -22.535  0.6470E-04  0.6666E-02
    -22.445  0.6399E-05  0.6667E-02
    -22.355  0.4252E-06  0.6667E-02
    -22.264  0.1897E-07  0.6667E-02
    -22.174  0.5676E-09  0.6667E-02
    -22.084  0.1138E-10  0.6667E-02
    -21.993  0.1529E-12  0.6667E-02
    -21.903  0.1369E-14  0.6667E-02
    -21.813  0.8196E-17  0.6667E-02
    -21.722  0.0000E+00  0.6667E-02
    -21.632  0.0000E+00  0.6667E-02
    -21.542  0.0000E+00  0.6667E-02
    -21.451  0.0000E+00  0.6667E-02
    -21.361  0.0000E+00  0.6667E-02
    -21.271  0.0000E+00  0.6667E-02
    -21.181  0.0000E+00  0.6667E-02
    -21.090  0.0000E+00  0.6667E-02
    -21.000  0.0000E+00  0.6667E-02
    -20.910  0.0000E+00  0.6667E-02
    -20.819  0.0000E+00  0.6667E-02
    -20.729  0.0000E+00  0.6667E-02
    -20.639  0.0000E+00  0.6667E-02
    -20.548  0.0000E+00  0.6667E-02
    -20.458  0.0000E+00  0.6667E-02
    -20.368  0.0000E+00  0.6667E-02
    -20.277  0.0000E+00  0.6667E-02
    -20.187  0.0000E+00  0.6667E-02
    -20.097  0.0000E+00  0.6667E-02
    -20.007  0.0000E+00  0.6667E-02
    -19.916  0.0000E+00  0.6667E-02
    -19.826  0.6557E-16  0.6667E-02
    -19.736  0.9482E-14  0.6667E-02
    -19.645  0.8984E-12  0.6667E-02
    -19.555  0.5699E-10  0.6667E-02
    -19.465  0.2421E-08  0.6667E-02
    -19.374  0.6898E-07  0.6667E-02
    -19.284  0.1318E-05  0.6667E-02
    -19.194  0.1692E-04  0.6668E-02
    -19.103  0.1460E-03  0.6682E-02
    -19.013  0.8473E-03  0.6758E-02
    -18.923  0.3310E-02  0.7057E-02
    -18.833  0.8713E-02  0.7844E-02
    -18.742  0.1546E-01  0.9240E-02
    -18.652  0.1848E-01  0.1091E-01
    -18.562  0.1491E-01  0.1225E-01
    -18.471  0.8103E-02  0.1299E-01
    -18.381  0.2969E-02  0.1325E-01
    -18.291  0.7328E-03  0.1332E-01
    -18.200  0.1218E-03  0.1333E-01
    -18.110  0.1361E-04  0.1333E-01
    -18.020  0.1022E-05  0.1333E-01
    -17.929  0.5155E-07  0.1333E-01
    -17.839  0.1744E-08  0.1333E-01
    -17.749  0.3957E-10  0.1333E-01
    -17.659  0.6013E-12  0.1333E-01
    -17.568  0.6118E-14  0.1333E-01
    -17.478  0.4098E-16  0.1333E-01
    -17.388  0.0000E+00  0.1333E-01
    -17.297  0.0000E+00  0.1333E-01
    -17.207  0.0000E+00  0.1333E-01
    -17.117  0.0000E+00  0.1333E-01
    -17.026  0.0000E+00  0.1333E-01
    -16.936  0.0000E+00  0.1333E-01
    -16.846  0.0000E+00  0.1333E-01
    -16.755  0.0000E+00  0.1333E-01
    -16.665  0.0000E+00  0.1333E-01
    -16.575  0.0000E+00  0.1333E-01
    -16.485  0.0000E+00  0.1333E-01
    -16.394  0.0000E+00  0.1333E-01
    -16.304  0.0000E+00  0.1333E-01
    -16.214  0.0000E+00  0.1333E-01
    -16.123  0.0000E+00  0.1333E-01
    -16.033  0.0000E+00  0.1333E-01
    -15.943  0.0000E+00  0.1333E-01
    -15.852  0.0000E+00  0.1333E-01
    -15.762  0.0000E+00  0.1333E-01
    -15.672  0.0000E+00  0.1333E-01
    -15.581  0.0000E+00  0.1333E-01
    -15.491  0.0000E+00  0.1333E-01
    -15.401  0.0000E+00  0.1333E-01
    -15.310  0.0000E+00  0.1333E-01
    -15.220  0.0000E+00  0.1333E-01
    -15.130  0.0000E+00  0.1333E-01
    -15.040  0.0000E+00  0.1333E-01
    -14.949  0.0000E+00  0.1333E-01
    -14.859  0.0000E+00  0.1333E-01
    -14.769  0.0000E+00  0.1333E-01
    -14.678  0.0000E+00  0.1333E-01
    -14.588  0.0000E+00  0.1333E-01
    -14.498  0.0000E+00  0.1333E-01
    -14.407  0.0000E+00  0.1333E-01
    -14.317  0.0000E+00  0.1333E-01
    -14.227  0.0000E+00  0.1333E-01
    -14.136  0.0000E+00  0.1333E-01
    -14.046  0.0000E+00  0.1333E-01
    -13.956  0.0000E+00  0.1333E-01
    -13.866  0.0000E+00  0.1333E-01
    -13.775  0.0000E+00  0.1333E-01
    -13.685  0.0000E+00  0.1333E-01
    -13.595  0.0000E+00  0.1333E-01
    -13.504  0.0000E+00  0.1333E-01
    -13.414  0.1229E-16  0.1333E-01
    -13.324  0.1942E-14  0.1333E-01
    -13.233  0.2101E-12  0.1333E-01
    -13.143  0.1521E-10  0.1333E-01
    -13.053  0.7372E-09  0.1333E-01
    -12.962  0.2395E-07  0.1333E-01
    -12.872  0.5219E-06  0.1333E-01
    -12.782  0.7636E-05  0.1333E-01
    -12.692  0.7507E-04  0.1334E-01
    -12.601  0.4963E-03  0.1339E-01
    -12.511  0.2209E-02  0.1359E-01
    -12.421  0.6619E-02  0.1418E-01
    -12.330  0.1337E-01  0.1539E-01
    -12.240  0.1820E-01  0.1703E-01
    -12.150  0.1671E-01  0.1854E-01
    -12.059  0.1034E-01  0.1948E-01
    -11.969  0.4338E-02  0.1987E-01
    -11.879  0.1397E-02  0.2000E-01
    -11.788  0.1249E-02  0.2011E-01
    -11.698  0.3829E-02  0.2045E-01
    -11.608  0.9561E-02  0.2132E-01
    -11.518  0.1634E-01  0.2279E-01
    -11.427  0.1957E-01  0.2456E-01
    -11.337  0.1836E-01  0.2622E-01
    -11.247  0.1752E-01  0.2780E-01
    -11.156  0.1917E-01  0.2953E-01
    -11.066  0.1885E-01  0.3123E-01
    -10.976  0.1361E-01  0.3246E-01
    -10.885  0.6760E-02  0.3307E-01
    -10.795  0.2272E-02  0.3328E-01
    -10.705  0.5150E-03  0.3333E-01
    -10.614  0.7857E-04  0.3333E-01
    -10.524  0.8061E-05  0.3333E-01
    -10.434  0.5558E-06  0.3333E-01
    -10.344  0.2573E-07  0.3333E-01
    -10.253  0.7988E-09  0.3333E-01
    -10.163  0.1663E-10  0.3333E-01
    -10.073  0.4417E-12  0.3333E-01
     -9.982  0.1520E-10  0.3333E-01
     -9.892  0.7368E-09  0.3333E-01
     -9.802  0.2394E-07  0.3333E-01
     -9.711  0.5217E-06  0.3333E-01
     -9.621  0.7633E-05  0.3333E-01
     -9.531  0.7505E-04  0.3334E-01
     -9.440  0.4962E-03  0.3339E-01
     -9.350  0.2208E-02  0.3359E-01
     -9.260  0.6618E-02  0.3418E-01
     -9.169  0.1337E-01  0.3539E-01
     -9.079  0.1820E-01  0.3703E-01
     -8.989  0.1671E-01  0.3854E-01
     -8.899  0.1034E-01  0.3948E-01
     -8.808  0.4320E-02  0.3987E-01
     -8.718  0.1261E-02  0.3998E-01
     -8.628  0.5753E-03  0.4003E-01
     -8.537  0.1700E-02  0.4019E-01
     -8.447  0.5440E-02  0.4068E-01
     -8.357  0.1193E-01  0.4175E-01
     -8.266  0.1764E-01  0.4335E-01
     -8.176  0.1763E-01  0.4494E-01
     -8.086  0.1217E-01  0.4604E-01
     -7.995  0.7080E-02  0.4668E-01
     -7.905  0.7204E-02  0.4733E-01
     -7.815  0.1243E-01  0.4845E-01
     -7.725  0.1776E-01  0.5006E-01
     -7.634  0.1749E-01  0.5163E-01
     -7.544  0.1164E-01  0.5269E-01
     -7.454  0.5222E-02  0.5316E-01
     -7.363  0.1579E-02  0.5330E-01
     -7.273  0.3214E-03  0.5333E-01
     -7.183  0.4404E-04  0.5333E-01
     -7.092  0.4057E-05  0.5333E-01
     -7.002  0.2510E-06  0.5333E-01
     -6.912  0.1043E-07  0.5333E-01
     -6.821  0.2905E-09  0.5333E-01
     -6.731  0.5422E-11  0.5333E-01
     -6.641  0.6776E-13  0.5333E-01
     -6.551  0.5737E-15  0.5333E-01
     -6.460  0.0000E+00  0.5333E-01
     -6.370  0.0000E+00  0.5333E-01
     -6.280  0.0000E+00  0.5333E-01
     -6.189  0.0000E+00  0.5333E-01
     -6.099  0.0000E+00  0.5333E-01
     -6.009  0.0000E+00  0.5333E-01
     -5.918  0.0000E+00  0.5333E-01
     -5.828  0.0000E+00  0.5333E-01
     -5.738  0.0000E+00  0.5333E-01
     -5.647  0.0000E+00  0.5333E-01
     -5.557  0.0000E+00  0.5333E-01
     -5.467  0.0000E+00  0.5333E-01
     -5.377  0.0000E+00  0.5333E-01
     -5.286  0.0000E+00  0.5333E-01
     -5.196  0.0000E+00  0.5333E-01
     -5.106  0.0000E+00  0.5333E-01
     -5.015  0.0000E+00  0.5333E-01
     -4.925  0.0000E+00  0.5333E-01
     -4.835  0.0000E+00  0.5333E-01
     -4.744  0.0000E+00  0.5333E-01
     -4.654  0.0000E+00  0.5333E-01
     -4.564  0.0000E+00  0.5333E-01
     -4.473  0.0000E+00  0.5333E-01
     -4.383  0.0000E+00  0.5333E-01
     -4.293  0.0000E+00  0.5333E-01
     -4.203  0.0000E+00  0.5333E-01
     -4.112  0.0000E+00  0.5333E-01
     -4.022  0.4098E-17  0.5333E-01
     -3.932  0.5983E-15  0.5333E-01
     -3.841  0.7113E-13  0.5333E-01
     -3.751  0.5667E-11  0.5333E-01
     -3.661  0.3023E-09  0.5333E-01
     -3.570  0.1081E-07  0.5333E-01
     -3.480  0.2591E-06  0.5333E-01
     -3.390  0.4169E-05  0.5333E-01
     -3.299  0.4507E-04  0.5334E-01
     -3.209  0.3276E-03  0.5337E-01
     -3.119  0.1602E-02  0.5351E-01
     -3.028  0.5278E-02  0.5399E-01
     -2.938  0.1171E-01  0.5505E-01
     -2.848  0.1752E-01  0.5663E-01
     -2.758  0.1768E-01  0.5823E-01
     -2.667  0.1202E-01  0.5931E-01
     -2.577  0.5513E-02  0.5981E-01
     -2.487  0.1703E-02  0.5996E-01
     -2.396  0.3543E-03  0.6000E-01
     -2.306  0.4961E-04  0.6000E-01
     -2.216  0.4670E-05  0.6000E-01
     -2.125  0.2954E-06  0.6000E-01
     -2.035  0.1254E-07  0.6000E-01
     -1.945  0.3570E-09  0.6000E-01
     -1.854  0.6813E-11  0.6000E-01
     -1.764  0.8703E-13  0.6000E-01
     -1.674  0.7540E-15  0.6000E-01
     -1.584  0.1229E-16  0.6000E-01
     -1.493  0.2046E-14  0.6000E-01
     -1.403  0.2272E-12  0.6000E-01
     -1.313  0.1693E-10  0.6000E-01
     -1.222  0.8481E-09  0.6000E-01
     -1.132  0.2858E-07  0.6000E-01
     -1.042  0.6488E-06  0.6000E-01
     -0.951  0.9935E-05  0.6000E-01
     -0.861  0.1027E-03  0.6001E-01
     -0.771  0.7181E-03  0.6008E-01
     -0.680  0.3398E-02  0.6038E-01
     -0.590  0.1089E-01  0.6137E-01
     -0.500  0.2369E-01  0.6351E-01
     -0.410  0.3499E-01  0.6667E-01
     -0.319  0.3541E-01  0.6986E-01
     -0.229  0.2580E-01  0.7219E-01
     -0.139  0.1724E-01  0.7375E-01
     -0.048  0.1642E-01  0.7523E-01
      0.042  0.1880E-01  0.7693E-01
      0.132  0.1706E-01  0.7847E-01
      0.223  0.1074E-01  0.7944E-01
      0.313  0.4573E-02  0.7986E-01
      0.403  0.1313E-02  0.7997E-01
      0.494  0.2540E-03  0.8000E-01
      0.584  0.3306E-04  0.8000E-01
      0.674  0.2892E-05  0.8000E-01
      0.764  0.1700E-06  0.8000E-01
      0.855  0.6705E-08  0.8000E-01
      0.945  0.1774E-09  0.8000E-01
      1.035  0.3144E-11  0.8000E-01
      1.126  0.3730E-13  0.8000E-01
      1.216  0.2991E-15  0.8000E-01
      1.306  0.0000E+00  0.8000E-01
      1.397  0.0000E+00  0.8000E-01
      1.487  0.0000E+00  0.8000E-01
      1.577  0.0000E+00  0.8000E-01
      1.668  0.0000E+00  0.8000E-01
      1.758  0.0000E+00  0.8000E-01
      1.848  0.0000E+00  0.8000E-01
      1.938  0.0000E+00  0.8000E-01
      2.029  0.0000E+00  0.8000E-01
