    6    6  300    1
  0.4500000E+04  0.3000000E-08  0.3000000E-08  0.3000000E-08  0.0000000E+00
  1.000000000000000E-004
  CAR 
 unknown system                          
     16      4     12
 
  0.2500000E+00  0.2500000E+00  0.2500000E+00  0.2500000E+00
    1      -23.063841   1.000000
    2      -18.701222   1.000000
    3      -12.259587   1.000000
    4      -11.487369   1.000000
    5      -11.134717   1.000000
    6       -9.098766   1.000000
    7       -8.267125   1.000000
    8       -7.727501   1.000000
    9       -2.845887   0.000000
   10       -0.427822   0.000000
   11       -0.390829   0.000000
   12        0.028800   0.000000
 
 -0.2500000E+00  0.2500000E+00  0.2500000E+00  0.2500000E+00
    1      -23.063840   1.000000
    2      -18.701222   1.000000
    3      -12.259587   1.000000
    4      -11.487373   1.000000
    5      -11.134717   1.000000
    6       -9.098766   1.000000
    7       -8.267125   1.000000
    8       -7.727500   1.000000
    9       -2.845884   0.000000
   10       -0.427825   0.000000
   11       -0.390827   0.000000
   12        0.026068   0.000000
 
  0.2500000E+00 -0.2500000E+00  0.2500000E+00  0.2500000E+00
    1      -23.063840   1.000000
    2      -18.701219   1.000000
    3      -12.259589   1.000000
    4      -11.487366   1.000000
    5      -11.134715   1.000000
    6       -9.098765   1.000000
    7       -8.267128   1.000000
    8       -7.727503   1.000000
    9       -2.845873   0.000000
   10       -0.427834   0.000000
   11       -0.390827   0.000000
   12        0.027266   0.000000
 
 -0.2500000E+00 -0.2500000E+00  0.2500000E+00  0.2500000E+00
    1      -23.063841   1.000000
    2      -18.701221   1.000000
    3      -12.259584   1.000000
    4      -11.487375   1.000000
    5      -11.134719   1.000000
    6       -9.098758   1.000000
    7       -8.267136   1.000000
    8       -7.727500   1.000000
    9       -2.845880   0.000000
   10       -0.427818   0.000000
   11       -0.390827   0.000000
   12        0.027203   0.000000
