 vasp.5.4.1 24Jun15 (build Jan 13 2020 12:58:22) complex                        
  
 executed on           IFC91_ompi date 2020.02.03  09:53:44
 running on   15 total cores
 each image running on    1 cores
 distrk:  each k-point on    1 cores,    1 groups
 distr:  one band on NCORES_PER_BAND=   1 cores,    1 groups


--------------------------------------------------------------------------------------------------------


 INCAR:
 POTCAR:    PAW_PBE H 15Jun2001                   
 POTCAR:    PAW_PBE C 08Apr2002                   
 POTCAR:    PAW_PBE N 08Apr2002                   
 POTCAR:    PAW_PBE H 15Jun2001                   
   VRHFIN =H: ultrasoft test                                                    
   LEXCH  = PE                                                                  
   EATOM  =    12.4884 eV,    0.9179 Ry                                         
                                                                                
   TITEL  = PAW_PBE H 15Jun2001                                                 
   LULTRA =        F    use ultrasoft PP ?                                      
   IUNSCR =        0    unscreen: 0-lin 1-nonlin 2-no                           
   RPACOR =    0.000    partial core radius                                     
   POMASS =    1.000; ZVAL   =    1.000    mass and valenz                      
   RCORE  =    1.100    outmost cutoff radius                                   
   RWIGS  =    0.700; RWIGS  =    0.370    wigner-seitz radius (au A)           
   ENMAX  =  250.000; ENMIN  =  200.000 eV                                      
   RCLOC  =    0.701    cutoff for local pot                                    
   LCOR   =        T    correct aug charges                                     
   LPAW   =        T    paw PP                                                  
   EAUG   =  400.000                                                            
   RMAX   =    1.123    core radius for proj-oper                               
   RAUG   =    1.200    factor for augmentation sphere                          
   RDEP   =    1.112    radius for radial grids                                 
   RDEPT  =    0.926    core radius for aug-charge                              
                                                                                
   Atomic configuration                                                         
    2 entries                                                                   
     n  l   j            E        occ.                                          
     1  0  0.50        -6.4927   1.0000                                         
     2  1  0.50        -3.4015   0.0000                                         
   Description                                                                  
     l       E           TYP  RCUT    TYP  RCUT                                 
     0     -6.4927494     23  1.100                                             
     0      6.8029130     23  1.100                                             
     1     -4.0817478     23  1.100                                             
  local pseudopotential read in
  atomic valenz-charges read in
  non local Contribution for L=           0  read in
    real space projection operators read in
  non local Contribution for L=           0  read in
    real space projection operators read in
  non local Contribution for L=           1  read in
    real space projection operators read in
    PAW grid and wavefunctions read in
 
   number of l-projection  operators is LMAX  =           3
   number of lm-projection operators is LMMAX =           5
 
 POTCAR:    PAW_PBE C 08Apr2002                   
   VRHFIN =C: s2p2                                                              
   LEXCH  = PE                                                                  
   EATOM  =   147.1560 eV,   10.8157 Ry                                         
                                                                                
   TITEL  = PAW_PBE C 08Apr2002                                                 
   LULTRA =        F    use ultrasoft PP ?                                      
   IUNSCR =        1    unscreen: 0-lin 1-nonlin 2-no                           
   RPACOR =    1.200    partial core radius                                     
   POMASS =   12.011; ZVAL   =    4.000    mass and valenz                      
   RCORE  =    1.500    outmost cutoff radius                                   
   RWIGS  =    1.630; RWIGS  =    0.863    wigner-seitz radius (au A)           
   ENMAX  =  400.000; ENMIN  =  300.000 eV                                      
   ICORE  =        2    local potential                                         
   LCOR   =        T    correct aug charges                                     
   LPAW   =        T    paw PP                                                  
   EAUG   =  644.873                                                            
   DEXC   =    0.000                                                            
   RMAX   =    1.529    core radius for proj-oper                               
   RAUG   =    1.300    factor for augmentation sphere                          
   RDEP   =    1.501    radius for radial grids                                 
   RDEPT  =    1.300    core radius for aug-charge                              
                                                                                
   Atomic configuration                                                         
    4 entries                                                                   
     n  l   j            E        occ.                                          
     1  0  0.50      -273.3789   2.0000                                         
     2  0  0.50       -13.7508   2.0000                                         
     2  1  0.50        -5.2854   2.0000                                         
     3  2  1.50        -5.4423   0.0000                                         
   Description                                                                  
     l       E           TYP  RCUT    TYP  RCUT                                 
     0    -13.7508458     23  1.200                                             
     0     -8.2022199     23  1.200                                             
     1     -5.2854383     23  1.500                                             
     1     34.0145650     23  1.500                                             
     2     -5.4423304      7  1.500                                             
  local pseudopotential read in
  partial core-charges read in
  partial kinetic energy density read in
  atomic valenz-charges read in
  non local Contribution for L=           0  read in
    real space projection operators read in
  non local Contribution for L=           0  read in
    real space projection operators read in
  non local Contribution for L=           1  read in
    real space projection operators read in
  non local Contribution for L=           1  read in
    real space projection operators read in
    PAW grid and wavefunctions read in
 
   number of l-projection  operators is LMAX  =           4
   number of lm-projection operators is LMMAX =           8
 
 POTCAR:    PAW_PBE N 08Apr2002                   
   VRHFIN =N: s2p3                                                              
   LEXCH  = PE                                                                  
   EATOM  =   264.5486 eV,   19.4438 Ry                                         
                                                                                
   TITEL  = PAW_PBE N 08Apr2002                                                 
   LULTRA =        F    use ultrasoft PP ?                                      
   IUNSCR =        1    unscreen: 0-lin 1-nonlin 2-no                           
   RPACOR =    1.200    partial core radius                                     
   POMASS =   14.001; ZVAL   =    5.000    mass and valenz                      
   RCORE  =    1.500    outmost cutoff radius                                   
   RWIGS  =    1.400; RWIGS  =    0.741    wigner-seitz radius (au A)           
   ENMAX  =  400.000; ENMIN  =  300.000 eV                                      
   ICORE  =        2    local potential                                         
   LCOR   =        T    correct aug charges                                     
   LPAW   =        T    paw PP                                                  
   EAUG   =  627.112                                                            
   DEXC   =    0.000                                                            
   RMAX   =    1.529    core radius for proj-oper                               
   RAUG   =    1.300    factor for augmentation sphere                          
   RDEP   =    1.514    radius for radial grids                                 
   RDEPT  =    1.338    core radius for aug-charge                              
                                                                                
   Atomic configuration                                                         
    4 entries                                                                   
     n  l   j            E        occ.                                          
     1  0  0.50      -384.7179   2.0000                                         
     2  0  0.50       -18.5828   2.0000                                         
     2  1  0.50        -7.0898   3.0000                                         
     3  2  1.50        -6.8029   0.0000                                         
   Description                                                                  
     l       E           TYP  RCUT    TYP  RCUT                                 
     0    -18.5828119     23  1.200                                             
     0    -13.5018863     23  1.200                                             
     1     -7.0897853     23  1.500                                             
     1      9.5240782     23  1.500                                             
     2     -6.8029130      7  1.500                                             
  local pseudopotential read in
  partial core-charges read in
  partial kinetic energy density read in
  atomic valenz-charges read in
  non local Contribution for L=           0  read in
    real space projection operators read in
  non local Contribution for L=           0  read in
    real space projection operators read in
  non local Contribution for L=           1  read in
    real space projection operators read in
  non local Contribution for L=           1  read in
    real space projection operators read in
    PAW grid and wavefunctions read in
 
   number of l-projection  operators is LMAX  =           4
   number of lm-projection operators is LMMAX =           8
 

 ----------------------------------------------------------------------------- 
|                                                                             |
|  ADVICE TO THIS USER RUNNING 'VASP/VAMP'   (HEAR YOUR MASTER'S VOICE ...):  |
|                                                                             |
|      You have a (more or less) 'small supercell' and for smaller cells      |
|      it is recommended  to use the reciprocal-space projection scheme!      |
|      The real space optimization is not  efficient for small cells and it   |
|      is also less accurate ...                                              |
|      Therefore set LREAL=.FALSE. in the  INCAR file                         |
|                                                                             |
 ----------------------------------------------------------------------------- 

 Optimization of the real space projectors (new method)

 maximal supplied QI-value         = 34.20
 optimisation between [QCUT,QGAM] = [  9.92, 20.18] = [ 27.55,114.04] Ry 
 Optimized for a Real-space Cutoff    1.26 Angstroem

   l    n(q)    QCUT    max X(q) W(low)/X(q) W(high)/X(q)  e(spline) 
   0      8     9.919    19.460    0.50E-03    0.23E-03    0.29E-06
   0      8     9.919    12.209    0.48E-03    0.23E-03    0.28E-06
   1      7     9.919     4.655    0.17E-03    0.75E-03    0.30E-06
 Optimization of the real space projectors (new method)

 maximal supplied QI-value         = 25.13
 optimisation between [QCUT,QGAM] = [ 10.05, 20.36] = [ 28.30,116.06] Ry 
 Optimized for a Real-space Cutoff    1.30 Angstroem

   l    n(q)    QCUT    max X(q) W(low)/X(q) W(high)/X(q)  e(spline) 
   0      8    10.053   115.676    0.49E-03    0.72E-03    0.18E-06
   0      8    10.053    87.132    0.49E-03    0.71E-03    0.18E-06
   1      7    10.053     4.429    0.32E-03    0.31E-03    0.18E-06
   1      7    10.053     2.733    0.23E-03    0.19E-03    0.20E-06
 Optimization of the real space projectors (new method)

 maximal supplied QI-value         = 25.13
 optimisation between [QCUT,QGAM] = [ 10.05, 20.36] = [ 28.30,116.06] Ry 
 Optimized for a Real-space Cutoff    1.65 Angstroem

   l    n(q)    QCUT    max X(q) W(low)/X(q) W(high)/X(q)  e(spline) 
   0     10    10.053    79.467    0.76E-04    0.72E-04    0.56E-06
   0     10    10.053    66.151    0.76E-04    0.72E-04    0.55E-06
   1     10    10.053     8.350    0.25E-03    0.92E-03    0.41E-05
   1     10    10.053     5.531    0.27E-03    0.10E-02    0.45E-05
  PAW_PBE H 15Jun2001                   :
 energy of atom  1       EATOM=  -12.4884
 kinetic energy error for atom=    0.0098 (will be added to EATOM!!)
  PAW_PBE C 08Apr2002                   :
 energy of atom  2       EATOM= -147.1560
 kinetic energy error for atom=    0.0288 (will be added to EATOM!!)
  PAW_PBE N 08Apr2002                   :
 energy of atom  3       EATOM= -264.5486
 kinetic energy error for atom=    0.0736 (will be added to EATOM!!)
 
 
 POSCAR: H3 C2 N1                                
  positions in direct lattice
  velocities in cartesian coordinates
 exchange correlation table for  LEXCH =        8
   RHO(1)=    0.500       N(1)  =     2000
   RHO(2)=  100.500       N(2)  =     4000

 VTST: version 3.2, (02/03/18)

 CHAIN: initializing optimizer
 
 OPT: Using FIRE optimizer
 OPT: FIRE, Init
 OPT: FIRE, MAXMOVE       0.20000
 OPT: FIRE, TIMESTEP      0.10000
 OPT: FIRE, FTIMEMAX      1.00000
 OPT: FIRE, FTIMEINC      1.10000
 OPT: FIRE, FTIMEDEC      0.50000
 OPT: FIRE, FALPHADEC     0.99000
 OPT: FIRE, FALPHA        0.10000
 OPT: FIRE, FNMIN         5
 
 CHAIN: Read ICHAIN            0
 CHAIN: Running the NEB
 NEB:          SPRING     -5.000000
 NEB:          LCLIMB      T
 NEB:     LTANGENTOLD      F
 NEB:           LDNEB      F
 NEB:        LDNEBORG      F
 NEB:        LNEBCELL      F
 NEB:          EFIRST      0.000000
 NEB:           ELAST      0.000000
 
 POSCAR: H3 C2 N1                                
  positions in direct lattice
  No initial velocities read in
 
 POSCAR: H3 C2 N1                                
  positions in direct lattice
  No initial velocities read in
 


--------------------------------------------------------------------------------------------------------


 ion  position               nearest neighbor table
   1  0.476  0.462  0.498-   4 1.09
   2  0.466  0.517  0.475-   4 1.09
   3  0.481  0.510  0.532-   4 1.11
   4  0.485  0.497  0.498-   1 1.09   2 1.09   3 1.11   5 1.51
   5  0.533  0.500  0.485-   6 1.17   4 1.51
   6  0.559  0.515  0.511-   5 1.17
 
  LATTYP: Found a simple cubic cell.
 ALAT       =    30.0000000000
  
  Lattice vectors:
  
 A1 = (  30.0000000000,   0.0000000000,   0.0000000000)
 A2 = (   0.0000000000,  30.0000000000,   0.0000000000)
 A3 = (   0.0000000000,   0.0000000000,  30.0000000000)


Analysis of symmetry for initial positions (statically):
=====================================================================
 Subroutine PRICEL returns:
 Original cell was already a primitive cell.
 

 Routine SETGRP: Setting up the symmetry group for a 
 simple cubic supercell.


 Subroutine GETGRP returns: Found  1 space group operations
 (whereof  1 operations were pure point group operations)
 out of a pool of 48 trial point group operations.


The static configuration has the point symmetry C_1 .


Analysis of symmetry for dynamics (positions and initial velocities):
=====================================================================
 Subroutine PRICEL returns:
 Original cell was already a primitive cell.
 

 Routine SETGRP: Setting up the symmetry group for a 
 simple cubic supercell.


 Subroutine GETGRP returns: Found  1 space group operations
 (whereof  1 operations were pure point group operations)
 out of a pool of 48 trial point group operations.


The dynamic configuration has the point symmetry C_1 .
 
 
 KPOINTS: Mo2C                                    

Automatic generation of k-mesh.
Space group operators:
 irot       det(A)        alpha          n_x          n_y          n_z        tau_x        tau_y        tau_z
    1     1.000000     0.000000     1.000000     0.000000     0.000000     0.000000     0.000000     0.000000
 
 Subroutine IBZKPT returns following result:
 ===========================================
 
 Found      4 irreducible k-points:
 
 Following reciprocal coordinates:
            Coordinates               Weight
  0.250000  0.250000  0.250000      2.000000
 -0.250000  0.250000  0.250000      2.000000
  0.250000 -0.250000  0.250000      2.000000
 -0.250000 -0.250000  0.250000      2.000000
 
 Following cartesian coordinates:
            Coordinates               Weight
  0.008333  0.008333  0.008333      2.000000
 -0.008333  0.008333  0.008333      2.000000
  0.008333 -0.008333  0.008333      2.000000
 -0.008333 -0.008333  0.008333      2.000000
 


--------------------------------------------------------------------------------------------------------




 Dimension of arrays:
   k-points           NKPTS =      4   k-points in BZ     NKDIM =      4   number of bands    NBANDS=     12
   number of dos      NEDOS =    301   number of ions     NIONS =      6
   non local maximal  LDIM  =      4   non local SUM 2l+1 LMDIM =      8
   total plane-waves  NPLWV = ******
   max r-space proj   IRMAX =   2395   max aug-charges    IRDMAX=   1738
   dimension x,y,z NGX =   150 NGY =  150 NGZ =  150
   dimension x,y,z NGXF=   300 NGYF=  300 NGZF=  300
   support grid    NGXF=   300 NGYF=  300 NGZF=  300
   ions per type =               3   2   1
 NGX,Y,Z   is equivalent  to a cutoff of   8.31,  8.31,  8.31 a.u.
 NGXF,Y,Z  is equivalent  to a cutoff of  16.62, 16.62, 16.62 a.u.


 I would recommend the setting:
   dimension x,y,z NGX =   147 NGY =  147 NGZ =  147
 SYSTEM =  unknown system                          
 POSCAR =  H3 C2 N1                                

 Startparameter for this run:
   NWRITE =      2    write-flag & timer
   PREC   = normal    normal or accurate (medium, high low for compatibility)
   ISTART =      0    job   : 0-new  1-cont  2-samecut
   ICHARG =      2    charge: 1-file 2-atom 10-const
   ISPIN  =      1    spin polarized calculation?
   LNONCOLLINEAR =      F non collinear calculations
   LSORBIT =      F    spin-orbit coupling
   INIWAV =      1    electr: 0-lowe 1-rand  2-diag
   LASPH  =      F    aspherical Exc in radial PAW
   METAGGA=      F    non-selfconsistent MetaGGA calc.

 Electronic Relaxation 1
   ENCUT  =  400.0 eV  29.40 Ry    5.42 a.u.  48.92 48.92 48.92*2*pi/ulx,y,z
   ENINI  =  400.0     initial cutoff
   ENAUG  =  644.9 eV  augmentation charge cutoff
   NELM   =    500;   NELMIN=  6; NELMDL= -5     # of ELM steps 
   EDIFF  = 0.1E-03   stopping-criterion for ELM
   LREAL  =      T    real-space projection
   NLSPLINE    = F    spline interpolate recip. space projectors
   LCOMPAT=      F    compatible to vasp.4.4
   GGA_COMPAT  = T    GGA compatible to vasp.4.4-vasp.4.6
   LMAXPAW     = -100 max onsite density
   LMAXMIX     =    2 max onsite mixed and CHGCAR
   VOSKOWN=      0    Vosko Wilk Nusair interpolation
   ROPT   =   -0.00050  -0.00050  -0.00050
 Ionic relaxation
   EDIFFG = -.1E+00   stopping-criterion for IOM
   NSW    =    300    number of steps for IOM
   NBLOCK =      1;   KBLOCK =    300    inner block; outer block 
   IBRION =      3    ionic relax: 0-MD 1-quasi-New 2-CG
   NFREE  =      0    steps in history (QN), initial steepest desc. (CG)
   ISIF   =      2    stress and relaxation
   IWAVPR =     11    prediction:  0-non 1-charg 2-wave 3-comb
   ISYM   =      2    0-nonsym 1-usesym 2-fastsym
   LCORR  =      T    Harris-Foulkes like correction to forces

   POTIM  = 0.0000    time-step for ionic-motion
   TEIN   =    0.0    initial temperature
   TEBEG  =    0.0;   TEEND  =   0.0 temperature during run
   SMASS  =   2.00    Nose mass-parameter (am)
   estimated Nose-frequenzy (Omega)   =  0.12E+10 period in steps =  0.00 mass=   0.137E-25a.u.
   SCALEE = 1.0000    scale energy and forces
   NPACO  =    256;   APACO  = 16.0  distance and # of slots for P.C.
   PSTRESS=    0.0 pullay stress

  Mass of Ions in am
   POMASS =   1.00 12.01 14.00
  Ionic Valenz
   ZVAL   =   1.00  4.00  5.00
  Atomic Wigner-Seitz radii
   RWIGS  =  -1.00 -1.00 -1.00
  virtual crystal weights 
   VCA    =   1.00  1.00  1.00
   NELECT =      16.0000    total number of electrons
   NUPDOWN=      -1.0000    fix difference up-down

 DOS related values:
   EMIN   =  10.00;   EMAX   =-10.00  energy-range for DOS
   EFERMI =   0.00
   ISMEAR =     0;   SIGMA  =   0.20  broadening in eV -4-tet -1-fermi 0-gaus

 Electronic relaxation 2 (details)
   IALGO  =     38    algorithm
   LDIAG  =      T    sub-space diagonalisation (order eigenvalues)
   LSUBROT=      F    optimize rotation matrix (better conditioning)
   TURBO    =      0    0=normal 1=particle mesh
   IRESTART =      0    0=no restart 2=restart with 2 vectors
   NREBOOT  =      0    no. of reboots
   NMIN     =      0    reboot dimension
   EREF     =   0.00    reference energy to select bands
   IMIX   =      4    mixing-type and parameters
     AMIX     =   0.40;   BMIX     =  1.00
     AMIX_MAG =   1.60;   BMIX_MAG =  1.00
     AMIN     =   0.10
     WC   =   100.;   INIMIX=   1;  MIXPRE=   1;  MAXMIX= -45

 Intra band minimization:
   WEIMIN = 0.0010     energy-eigenvalue tresh-hold
   EBREAK =  0.21E-05  absolut break condition
   DEPER  =   0.30     relativ break condition  

   TIME   =   0.40     timestep for ELM

  volume/ion in A,a.u.               =    4500.00     30367.50
  Fermi-wavevector in a.u.,A,eV,Ry     =   0.137508  0.259852  0.257264  0.018908
  Thomas-Fermi vector in A             =   0.790710
 
 Write flags
   LWAVE  =      F    write WAVECAR
   LCHARG =      F    write CHGCAR
   LVTOT  =      F    write LOCPOT, total local potential
   LVHAR  =      F    write LOCPOT, Hartree potential only
   LELF   =      F    write electronic localiz. function (ELF)
   LORBIT =      0    0 simple, 1 ext, 2 COOP (PROOUT)


 Dipole corrections
   LMONO  =      F    monopole corrections only (constant potential shift)
   LDIPOL =      F    correct potential (dipole corrections)
   IDIPOL =      0    1-x, 2-y, 3-z, 4-all directions 
   EPSILON=  1.0000000 bulk dielectric constant

 Exchange correlation treatment:
   GGA     =    PE    GGA type
   LEXCH   =     8    internal setting for exchange type
   VOSKOWN=      0    Vosko Wilk Nusair interpolation
   LHFCALC =     F    Hartree Fock is set to
   LHFONE  =     F    Hartree Fock one center treatment
   AEXX    =    0.0000 exact exchange contribution

 Linear response parameters
   LEPSILON=     F    determine dielectric tensor
   LRPA    =     F    only Hartree local field effects (RPA)
   LNABLA  =     F    use nabla operator in PAW spheres
   LVEL    =     F    velocity operator in full k-point grid
   LINTERFAST=   F  fast interpolation
   KINTER  =     0    interpolate to denser k-point grid
   CSHIFT  =0.1000    complex shift for real part using Kramers Kronig
   OMEGAMAX=  -1.0    maximum frequency
   DEG_THRESHOLD= 0.2000000E-02 threshold for treating states as degnerate
   RTIME   =    0.100 relaxation time in fs

 Orbital magnetization related:
   ORBITALMAG=     F  switch on orbital magnetization
   LCHIMAG   =     F  perturbation theory with respect to B field
   DQ        =  0.001000  dq finite difference perturbation B field



--------------------------------------------------------------------------------------------------------


 quickmin algorithm: (dynamic with friction)
 charge density and potential will be updated during run
 non-spin polarized calculation
 Variant of blocked Davidson
 Davidson routine will perform the subspace rotation
 perform sub-space diagonalisation
    after iterative eigenvector-optimisation
 modified Broyden-mixing scheme, WC =      100.0
 initial mixing is a Kerker type mixing with AMIX =  0.4000 and BMIX =      1.0000
 Hartree-type preconditioning will be used
 using additional bands            4
 real space projection scheme for non local part
 use partial core corrections
 calculate Harris-corrections to forces 
   (improved forces if not selfconsistent)
 use gradient corrections 
 use of overlap-Matrix (Vanderbilt PP)
 Gauss-broadening in eV      SIGMA  =   0.20


--------------------------------------------------------------------------------------------------------


  energy-cutoff  :      400.00
  volume of cell :    27000.00
      direct lattice vectors                 reciprocal lattice vectors
    30.000000000  0.000000000  0.000000000     0.033333333  0.000000000  0.000000000
     0.000000000 30.000000000  0.000000000     0.000000000  0.033333333  0.000000000
     0.000000000  0.000000000 30.000000000     0.000000000  0.000000000  0.033333333

  length of vectors
    30.000000000 30.000000000 30.000000000     0.033333333  0.033333333  0.033333333


 
 k-points in units of 2pi/SCALE and weight: Mo2C                                    
   0.00833333  0.00833333  0.00833333       0.250
  -0.00833333  0.00833333  0.00833333       0.250
   0.00833333 -0.00833333  0.00833333       0.250
  -0.00833333 -0.00833333  0.00833333       0.250
 
 k-points in reciprocal lattice and weights: Mo2C                                    
   0.25000000  0.25000000  0.25000000       0.250
  -0.25000000  0.25000000  0.25000000       0.250
   0.25000000 -0.25000000  0.25000000       0.250
  -0.25000000 -0.25000000  0.25000000       0.250
 
 position of ions in fractional coordinates (direct lattice) 
   0.47580645  0.46164453  0.49813546
   0.46640672  0.51737826  0.47498860
   0.48087278  0.51019446  0.53239303
   0.48496974  0.49669923  0.49825187
   0.53338815  0.49950317  0.48527812
   0.55856622  0.51459928  0.51095288
 
 position of ions in cartesian coordinates  (Angst):
  14.27419351 13.84933601 14.94406381
  13.99220162 15.52134794 14.24965787
  14.42618354 15.30583387 15.97179076
  14.54909210 14.90097701 14.94755612
  16.00164447 14.98509506 14.55834375
  16.75698651 15.43797855 15.32858654
 


--------------------------------------------------------------------------------------------------------


 k-point  1 :   0.2500 0.2500 0.2500  plane waves:  490454
 k-point  2 :  -0.2500 0.2500 0.2500  plane waves:  490454
 k-point  3 :   0.2500-0.2500 0.2500  plane waves:  490454
 k-point  4 :  -0.2500-0.2500 0.2500  plane waves:  490454

 maximum and minimum number of plane-waves per node :    490454   490454

 maximum number of plane-waves:    490454
 maximum index in each direction: 
   IXMAX=   49   IYMAX=   49   IZMAX=   48
   IXMIN=  -49   IYMIN=  -49   IZMIN=  -49

 WARNING: aliasing errors must be expected set NGX to 198 to avoid them
 WARNING: aliasing errors must be expected set NGY to 198 to avoid them
 WARNING: aliasing errors must be expected set NGZ to 196 to avoid them
 aliasing errors are usually negligible using standard VASP settings
 and one can safely disregard these warnings

 serial   3D FFT for wavefunctions
 parallel 3D FFT for charge:
    minimum data exchange during FFTs selected (reduces bandwidth)


 total amount of memory used by VASP on root node  3203888. kBytes
========================================================================

   base      :      30000. kBytes
   nonlr-proj:        692. kBytes
   fftplans  :     924480. kBytes
   grid      :    1872000. kBytes
   one-center:         18. kBytes
   wavefun   :     376698. kBytes
 
     INWAV:  cpu time    0.0010: real time    0.0004
 Broyden mixing: mesh for mixing (old mesh)
   NGX = 97   NGY = 97   NGZ = 97
  (NGX  =300   NGY  =300   NGZ  =300)
  gives a total of 912673 points

 initial charge density was supplied:
 charge density of overlapping atoms calculated
 number of electron      16.0000000 magnetization 
 keeping initial charge density in first step


--------------------------------------------------------------------------------------------------------


 Maximum index for non-local projection operator         2269
 Maximum index for augmentation-charges         1495 (set IRDMAX)


--------------------------------------------------------------------------------------------------------


 First call to EWALD:  gamma=   0.059
 Maximum number of real-space cells 3x 3x 3
 Maximum number of reciprocal cells 3x 3x 3

 FEWALD executed in parallel
    FEWALD:  cpu time    0.0020: real time    0.0020


----------------------------------------- Iteration    1(   1)  ---------------------------------------


    POTLOK:  cpu time   20.2609: real time   20.2455
    SETDIJ:  cpu time    0.0080: real time    0.0081
     EDDAV:  cpu time   88.8595: real time   88.7841
       DOS:  cpu time    0.0000: real time    0.0003
    --------------------------------------------
      LOOP:  cpu time  109.1314: real time  109.0427

 eigenvalue-minimisations  :   160
 total energy-change (2. order) : 0.1135624E+03  (-0.2131118E+03)
 number of electron      16.0000000 magnetization 
 augmentation part       16.0000000 magnetization 

 Free energy of the ion-electron system (eV)
  ---------------------------------------------------
  alpha Z        PSCENC =         0.04144063
  Ewald energy   TEWEN  =       692.00171487
  -Hartree energ DENC   =     -1107.17275556
  -exchange      EXHF   =         0.00000000
  -V(xc)+E(xc)   XCENC  =        51.35021331
  PAW double counting   =       428.37890668     -430.73533574
  entropy T*S    EENTRO =        -0.21111290
  eigenvalues    EBANDS =      -116.25599345
  atomic energy  EATOM  =       596.16534815
  Solvation  Ediel_sol  =         0.00000000
  ---------------------------------------------------
  free energy    TOTEN  =       113.56242599 eV

  energy without entropy =      113.77353889  energy(sigma->0) =      113.66798244


--------------------------------------------------------------------------------------------------------




----------------------------------------- Iteration    1(   2)  ---------------------------------------


     EDDAV:  cpu time  106.3788: real time  106.2917
       DOS:  cpu time    0.0000: real time    0.0002
    --------------------------------------------
      LOOP:  cpu time  106.3798: real time  106.2949

 eigenvalue-minimisations  :   192
 total energy-change (2. order) :-0.1152042E+03  (-0.1124130E+03)
 number of electron      16.0000000 magnetization 
 augmentation part       16.0000000 magnetization 

 Free energy of the ion-electron system (eV)
  ---------------------------------------------------
  alpha Z        PSCENC =         0.04144063
  Ewald energy   TEWEN  =       692.00171487
  -Hartree energ DENC   =     -1107.17275556
  -exchange      EXHF   =         0.00000000
  -V(xc)+E(xc)   XCENC  =        51.35021331
  PAW double counting   =       428.37890668     -430.73533574
  entropy T*S    EENTRO =         0.00000000
  eigenvalues    EBANDS =      -231.67134645
  atomic energy  EATOM  =       596.16534815
  Solvation  Ediel_sol  =         0.00000000
  ---------------------------------------------------
  free energy    TOTEN  =        -1.64181411 eV

  energy without entropy =       -1.64181411  energy(sigma->0) =       -1.64181411


--------------------------------------------------------------------------------------------------------




----------------------------------------- Iteration    1(   3)  ---------------------------------------


     EDDAV:  cpu time   79.4929: real time   79.4287
       DOS:  cpu time    0.0000: real time    0.0002
    --------------------------------------------
      LOOP:  cpu time   79.4949: real time   79.4317

 eigenvalue-minimisations  :   128
 total energy-change (2. order) :-0.3453105E+02  (-0.3398163E+02)
 number of electron      16.0000000 magnetization 
 augmentation part       16.0000000 magnetization 

 Free energy of the ion-electron system (eV)
  ---------------------------------------------------
  alpha Z        PSCENC =         0.04144063
  Ewald energy   TEWEN  =       692.00171487
  -Hartree energ DENC   =     -1107.17275556
  -exchange      EXHF   =         0.00000000
  -V(xc)+E(xc)   XCENC  =        51.35021331
  PAW double counting   =       428.37890668     -430.73533574
  entropy T*S    EENTRO =         0.00000000
  eigenvalues    EBANDS =      -266.20239493
  atomic energy  EATOM  =       596.16534815
  Solvation  Ediel_sol  =         0.00000000
  ---------------------------------------------------
  free energy    TOTEN  =       -36.17286259 eV

  energy without entropy =      -36.17286259  energy(sigma->0) =      -36.17286259


--------------------------------------------------------------------------------------------------------




----------------------------------------- Iteration    1(   4)  ---------------------------------------


     EDDAV:  cpu time   63.4574: real time   63.4070
       DOS:  cpu time    0.0000: real time    0.0002
    --------------------------------------------
      LOOP:  cpu time   63.4594: real time   63.4103

 eigenvalue-minimisations  :    96
 total energy-change (2. order) :-0.3002001E+01  (-0.2909023E+01)
 number of electron      16.0000000 magnetization 
 augmentation part       16.0000000 magnetization 

 Free energy of the ion-electron system (eV)
  ---------------------------------------------------
  alpha Z        PSCENC =         0.04144063
  Ewald energy   TEWEN  =       692.00171487
  -Hartree energ DENC   =     -1107.17275556
  -exchange      EXHF   =         0.00000000
  -V(xc)+E(xc)   XCENC  =        51.35021331
  PAW double counting   =       428.37890668     -430.73533574
  entropy T*S    EENTRO =         0.00000000
  eigenvalues    EBANDS =      -269.20439629
  atomic energy  EATOM  =       596.16534815
  Solvation  Ediel_sol  =         0.00000000
  ---------------------------------------------------
  free energy    TOTEN  =       -39.17486395 eV

  energy without entropy =      -39.17486395  energy(sigma->0) =      -39.17486395


--------------------------------------------------------------------------------------------------------




----------------------------------------- Iteration    1(   5)  ---------------------------------------


     EDDAV:  cpu time   96.4273: real time   96.3480
       DOS:  cpu time    0.0000: real time    0.0002
    CHARGE:  cpu time    5.9901: real time    5.9852
    MIXING:  cpu time    0.6289: real time    0.6288
    --------------------------------------------
      LOOP:  cpu time  103.0483: real time  102.9663

 eigenvalue-minimisations  :   160
 total energy-change (2. order) :-0.8775242E-01  (-0.8765603E-01)
 number of electron      15.9999988 magnetization 
 augmentation part        0.5131822 magnetization 

 Broyden mixing:
  rms(total) = 0.10921E+01    rms(broyden)= 0.10913E+01
  rms(prec ) = 0.11346E+01
  weight for this iteration     100.00

 Free energy of the ion-electron system (eV)
  ---------------------------------------------------
  alpha Z        PSCENC =         0.04144063
  Ewald energy   TEWEN  =       692.00171487
  -Hartree energ DENC   =     -1107.17275556
  -exchange      EXHF   =         0.00000000
  -V(xc)+E(xc)   XCENC  =        51.35021331
  PAW double counting   =       428.37890668     -430.73533574
  entropy T*S    EENTRO =         0.00000000
  eigenvalues    EBANDS =      -269.29214872
  atomic energy  EATOM  =       596.16534815
  Solvation  Ediel_sol  =         0.00000000
  ---------------------------------------------------
  free energy    TOTEN  =       -39.26261638 eV

  energy without entropy =      -39.26261638  energy(sigma->0) =      -39.26261638


--------------------------------------------------------------------------------------------------------




----------------------------------------- Iteration    1(   6)  ---------------------------------------


    POTLOK:  cpu time   25.1932: real time   25.1724
    SETDIJ:  cpu time    0.0080: real time    0.0081
     EDDAV:  cpu time   71.5411: real time   71.4826
       DOS:  cpu time    0.0000: real time    0.0002
    CHARGE:  cpu time    5.8991: real time    5.8944
    MIXING:  cpu time    0.6649: real time    0.6645
    --------------------------------------------
      LOOP:  cpu time  103.3073: real time  103.2261

 eigenvalue-minimisations  :   112
 total energy-change (2. order) : 0.3118109E+01  (-0.6075096E+00)
 number of electron      15.9999990 magnetization 
 augmentation part        0.4387218 magnetization 

 Broyden mixing:
  rms(total) = 0.61772E+00    rms(broyden)= 0.61750E+00
  rms(prec ) = 0.63462E+00
  weight for this iteration     100.00

 eigenvalues of (default mixing * dielectric matrix)
  average eigenvalue GAMMA=   1.2092
  1.2092

 Free energy of the ion-electron system (eV)
  ---------------------------------------------------
  alpha Z        PSCENC =         0.04144063
  Ewald energy   TEWEN  =       692.00171487
  -Hartree energ DENC   =     -1138.91283748
  -exchange      EXHF   =         0.00000000
  -V(xc)+E(xc)   XCENC  =        53.07240557
  PAW double counting   =       718.25511151     -720.92794567
  entropy T*S    EENTRO =         0.00000000
  eigenvalues    EBANDS =      -235.83974455
  atomic energy  EATOM  =       596.16534815
  Solvation  Ediel_sol  =         0.00000000
  ---------------------------------------------------
  free energy    TOTEN  =       -36.14450697 eV

  energy without entropy =      -36.14450697  energy(sigma->0) =      -36.14450697


--------------------------------------------------------------------------------------------------------




----------------------------------------- Iteration    1(   7)  ---------------------------------------


    POTLOK:  cpu time   24.3353: real time   24.3158
    SETDIJ:  cpu time    0.0090: real time    0.0085
     EDDAV:  cpu time   71.7151: real time   71.6562
       DOS:  cpu time    0.0000: real time    0.0002
    CHARGE:  cpu time    5.7881: real time    5.7832
    MIXING:  cpu time    0.7249: real time    0.7240
    --------------------------------------------
      LOOP:  cpu time  102.5734: real time  102.4912

 eigenvalue-minimisations  :   112
 total energy-change (2. order) : 0.6075718E+00  (-0.1644511E+00)
 number of electron      15.9999988 magnetization 
 augmentation part        0.4515174 magnetization 

 Broyden mixing:
  rms(total) = 0.33202E+00    rms(broyden)= 0.33194E+00
  rms(prec ) = 0.34237E+00
  weight for this iteration     100.00

 eigenvalues of (default mixing * dielectric matrix)
  average eigenvalue GAMMA=   1.3241
  0.7511  1.8972

 Free energy of the ion-electron system (eV)
  ---------------------------------------------------
  alpha Z        PSCENC =         0.04144063
  Ewald energy   TEWEN  =       692.00171487
  -Hartree energ DENC   =     -1153.84680943
  -exchange      EXHF   =         0.00000000
  -V(xc)+E(xc)   XCENC  =        53.90537686
  PAW double counting   =       990.75893074     -993.53700153
  entropy T*S    EENTRO =         0.00000000
  eigenvalues    EBANDS =      -221.02593550
  atomic energy  EATOM  =       596.16534815
  Solvation  Ediel_sol  =         0.00000000
  ---------------------------------------------------
  free energy    TOTEN  =       -35.53693520 eV

  energy without entropy =      -35.53693520  energy(sigma->0) =      -35.53693520


--------------------------------------------------------------------------------------------------------




----------------------------------------- Iteration    1(   8)  ---------------------------------------


    POTLOK:  cpu time   23.7264: real time   23.7072
    SETDIJ:  cpu time    0.0090: real time    0.0082
     EDDAV:  cpu time   79.7739: real time   79.7078
       DOS:  cpu time    0.0000: real time    0.0002
    CHARGE:  cpu time    5.7121: real time    5.7076
    MIXING:  cpu time    0.7629: real time    0.7623
    --------------------------------------------
      LOOP:  cpu time  109.9843: real time  109.8973

 eigenvalue-minimisations  :   128
 total energy-change (2. order) : 0.2057159E+00  (-0.4722364E-01)
 number of electron      15.9999989 magnetization 
 augmentation part        0.4265160 magnetization 

 Broyden mixing:
  rms(total) = 0.12822E+00    rms(broyden)= 0.12816E+00
  rms(prec ) = 0.13213E+00
  weight for this iteration     100.00

 eigenvalues of (default mixing * dielectric matrix)
  average eigenvalue GAMMA=   1.4253
  2.2117  1.4058  0.6584

 Free energy of the ion-electron system (eV)
  ---------------------------------------------------
  alpha Z        PSCENC =         0.04144063
  Ewald energy   TEWEN  =       692.00171487
  -Hartree energ DENC   =     -1164.84348716
  -exchange      EXHF   =         0.00000000
  -V(xc)+E(xc)   XCENC  =        54.60407568
  PAW double counting   =      1219.31087246    -1222.15018579
  entropy T*S    EENTRO =         0.00000000
  eigenvalues    EBANDS =      -210.46099812
  atomic energy  EATOM  =       596.16534815
  Solvation  Ediel_sol  =         0.00000000
  ---------------------------------------------------
  free energy    TOTEN  =       -35.33121928 eV

  energy without entropy =      -35.33121928  energy(sigma->0) =      -35.33121928


--------------------------------------------------------------------------------------------------------




----------------------------------------- Iteration    1(   9)  ---------------------------------------


    POTLOK:  cpu time   24.0463: real time   24.0281
    SETDIJ:  cpu time    0.0090: real time    0.0085
     EDDAV:  cpu time   63.3684: real time   63.3161
       DOS:  cpu time    0.0000: real time    0.0002
    CHARGE:  cpu time    5.8681: real time    5.8646
    MIXING:  cpu time    0.8169: real time    0.8162
    --------------------------------------------
      LOOP:  cpu time   94.1107: real time   94.0373

 eigenvalue-minimisations  :    96
 total energy-change (2. order) : 0.2765578E-01  (-0.5728511E-02)
 number of electron      15.9999989 magnetization 
 augmentation part        0.4279347 magnetization 

 Broyden mixing:
  rms(total) = 0.39298E-01    rms(broyden)= 0.39284E-01
  rms(prec ) = 0.43208E-01
  weight for this iteration     100.00

 eigenvalues of (default mixing * dielectric matrix)
  average eigenvalue GAMMA=   1.3737
  2.2896  1.5673  0.9525  0.6856

 Free energy of the ion-electron system (eV)
  ---------------------------------------------------
  alpha Z        PSCENC =         0.04144063
  Ewald energy   TEWEN  =       692.00171487
  -Hartree energ DENC   =     -1167.53104884
  -exchange      EXHF   =         0.00000000
  -V(xc)+E(xc)   XCENC  =        54.78032584
  PAW double counting   =      1316.92798113    -1319.74182470
  entropy T*S    EENTRO =         0.00000000
  eigenvalues    EBANDS =      -207.94750057
  atomic energy  EATOM  =       596.16534815
  Solvation  Ediel_sol  =         0.00000000
  ---------------------------------------------------
  free energy    TOTEN  =       -35.30356350 eV

  energy without entropy =      -35.30356350  energy(sigma->0) =      -35.30356350


--------------------------------------------------------------------------------------------------------




----------------------------------------- Iteration    1(  10)  ---------------------------------------


    POTLOK:  cpu time   22.9455: real time   22.9278
    SETDIJ:  cpu time    0.0090: real time    0.0082
     EDDAV:  cpu time   79.6159: real time   79.5516
       DOS:  cpu time    0.0000: real time    0.0002
    CHARGE:  cpu time    5.7771: real time    5.7721
    MIXING:  cpu time    0.8529: real time    0.8521
    --------------------------------------------
      LOOP:  cpu time  109.2034: real time  109.1157

 eigenvalue-minimisations  :   128
 total energy-change (2. order) : 0.3561079E-02  (-0.5735808E-03)
 number of electron      15.9999989 magnetization 
 augmentation part        0.4294031 magnetization 

 Broyden mixing:
  rms(total) = 0.15729E-01    rms(broyden)= 0.15720E-01
  rms(prec ) = 0.20683E-01
  weight for this iteration     100.00

 eigenvalues of (default mixing * dielectric matrix)
  average eigenvalue GAMMA=   1.4466
  2.1689  2.1689  1.3192  0.6839  0.8920

 Free energy of the ion-electron system (eV)
  ---------------------------------------------------
  alpha Z        PSCENC =         0.04144063
  Ewald energy   TEWEN  =       692.00171487
  -Hartree energ DENC   =     -1168.41077019
  -exchange      EXHF   =         0.00000000
  -V(xc)+E(xc)   XCENC  =        54.80537981
  PAW double counting   =      1330.81877850    -1333.62324857
  entropy T*S    EENTRO =         0.00000000
  eigenvalues    EBANDS =      -207.09864563
  atomic energy  EATOM  =       596.16534815
  Solvation  Ediel_sol  =         0.00000000
  ---------------------------------------------------
  free energy    TOTEN  =       -35.30000242 eV

  energy without entropy =      -35.30000242  energy(sigma->0) =      -35.30000242


--------------------------------------------------------------------------------------------------------




----------------------------------------- Iteration    1(  11)  ---------------------------------------


    POTLOK:  cpu time   23.1965: real time   23.1773
    SETDIJ:  cpu time    0.0080: real time    0.0084
     EDDAV:  cpu time   62.7525: real time   62.7013
       DOS:  cpu time    0.0000: real time    0.0002
    CHARGE:  cpu time    5.9391: real time    5.9342
    MIXING:  cpu time    0.9039: real time    0.9029
    --------------------------------------------
      LOOP:  cpu time   92.8009: real time   92.7280

 eigenvalue-minimisations  :    96
 total energy-change (2. order) :-0.3620956E-03  (-0.1983695E-03)
 number of electron      15.9999989 magnetization 
 augmentation part        0.4291237 magnetization 

 Broyden mixing:
  rms(total) = 0.87450E-02    rms(broyden)= 0.87432E-02
  rms(prec ) = 0.13117E-01
  weight for this iteration     100.00

 eigenvalues of (default mixing * dielectric matrix)
  average eigenvalue GAMMA=   1.4953
  2.3511  2.3511  0.6839  0.9502  1.3176  1.3176

 Free energy of the ion-electron system (eV)
  ---------------------------------------------------
  alpha Z        PSCENC =         0.04144063
  Ewald energy   TEWEN  =       692.00171487
  -Hartree energ DENC   =     -1169.53129455
  -exchange      EXHF   =         0.00000000
  -V(xc)+E(xc)   XCENC  =        54.83040153
  PAW double counting   =      1332.11739298    -1334.91727640
  entropy T*S    EENTRO =         0.00000000
  eigenvalues    EBANDS =      -206.00809173
  atomic energy  EATOM  =       596.16534815
  Solvation  Ediel_sol  =         0.00000000
  ---------------------------------------------------
  free energy    TOTEN  =       -35.30036451 eV

  energy without entropy =      -35.30036451  energy(sigma->0) =      -35.30036451


--------------------------------------------------------------------------------------------------------




----------------------------------------- Iteration    1(  12)  ---------------------------------------


    POTLOK:  cpu time   22.4116: real time   22.3939
    SETDIJ:  cpu time    0.0090: real time    0.0082
     EDDAV:  cpu time   71.2922: real time   71.2340
       DOS:  cpu time    0.0000: real time    0.0002
    CHARGE:  cpu time    5.9791: real time    5.9745
    MIXING:  cpu time    0.9329: real time    0.9318
    --------------------------------------------
      LOOP:  cpu time  100.6267: real time  100.5465

 eigenvalue-minimisations  :   112
 total energy-change (2. order) :-0.3610924E-02  (-0.1512849E-03)
 number of electron      15.9999989 magnetization 
 augmentation part        0.4288846 magnetization 

 Broyden mixing:
  rms(total) = 0.46424E-02    rms(broyden)= 0.46405E-02
  rms(prec ) = 0.77785E-02
  weight for this iteration     100.00

 eigenvalues of (default mixing * dielectric matrix)
  average eigenvalue GAMMA=   1.6308
  3.3848  2.3207  0.6837  1.5971  0.8886  1.2705  1.2705

 Free energy of the ion-electron system (eV)
  ---------------------------------------------------
  alpha Z        PSCENC =         0.04144063
  Ewald energy   TEWEN  =       692.00171487
  -Hartree energ DENC   =     -1170.72012090
  -exchange      EXHF   =         0.00000000
  -V(xc)+E(xc)   XCENC  =        54.85606303
  PAW double counting   =      1329.23451653    -1332.03181251
  entropy T*S    EENTRO =         0.00000000
  eigenvalues    EBANDS =      -204.85112524
  atomic energy  EATOM  =       596.16534815
  Solvation  Ediel_sol  =         0.00000000
  ---------------------------------------------------
  free energy    TOTEN  =       -35.30397544 eV

  energy without entropy =      -35.30397544  energy(sigma->0) =      -35.30397544


--------------------------------------------------------------------------------------------------------




----------------------------------------- Iteration    1(  13)  ---------------------------------------


    POTLOK:  cpu time   23.1735: real time   23.1548
    SETDIJ:  cpu time    0.0090: real time    0.0085
     EDDAV:  cpu time   87.6817: real time   87.6102
       DOS:  cpu time    0.0000: real time    0.0002
    CHARGE:  cpu time    5.8281: real time    5.8243
    MIXING:  cpu time    0.9948: real time    0.9940
    --------------------------------------------
      LOOP:  cpu time  117.6881: real time  117.5957

 eigenvalue-minimisations  :   144
 total energy-change (2. order) :-0.4333152E-02  (-0.1774721E-03)
 number of electron      15.9999989 magnetization 
 augmentation part        0.4286238 magnetization 

 Broyden mixing:
  rms(total) = 0.32385E-02    rms(broyden)= 0.32362E-02
  rms(prec ) = 0.48940E-02
  weight for this iteration     100.00

 eigenvalues of (default mixing * dielectric matrix)
  average eigenvalue GAMMA=   1.7543
  4.1406  2.4925  1.7076  1.7076  1.4391  0.6835  0.9320  0.9320

 Free energy of the ion-electron system (eV)
  ---------------------------------------------------
  alpha Z        PSCENC =         0.04144063
  Ewald energy   TEWEN  =       692.00171487
  -Hartree energ DENC   =     -1171.73629452
  -exchange      EXHF   =         0.00000000
  -V(xc)+E(xc)   XCENC  =        54.87713225
  PAW double counting   =      1328.54249877    -1331.33905255
  entropy T*S    EENTRO =         0.00000000
  eigenvalues    EBANDS =      -203.86109619
  atomic energy  EATOM  =       596.16534815
  Solvation  Ediel_sol  =         0.00000000
  ---------------------------------------------------
  free energy    TOTEN  =       -35.30830859 eV

  energy without entropy =      -35.30830859  energy(sigma->0) =      -35.30830859


--------------------------------------------------------------------------------------------------------




----------------------------------------- Iteration    1(  14)  ---------------------------------------


    POTLOK:  cpu time   22.9055: real time   22.8868
    SETDIJ:  cpu time    0.0090: real time    0.0088
     EDDAV:  cpu time   77.7472: real time   77.6837
       DOS:  cpu time    0.0000: real time    0.0002
    CHARGE:  cpu time    5.8571: real time    5.8531
    MIXING:  cpu time    1.0938: real time    1.0929
    --------------------------------------------
      LOOP:  cpu time  107.6146: real time  107.5291

 eigenvalue-minimisations  :   124
 total energy-change (2. order) :-0.4468378E-02  (-0.6484393E-04)
 number of electron      15.9999989 magnetization 
 augmentation part        0.4285976 magnetization 

 Broyden mixing:
  rms(total) = 0.23952E-02    rms(broyden)= 0.23946E-02
  rms(prec ) = 0.32173E-02
  weight for this iteration     100.00

 eigenvalues of (default mixing * dielectric matrix)
  average eigenvalue GAMMA=   1.7969
  4.8484  2.5931  2.2109  1.6179  1.2318  1.2318  0.6835  0.8772  0.8772

 Free energy of the ion-electron system (eV)
  ---------------------------------------------------
  alpha Z        PSCENC =         0.04144063
  Ewald energy   TEWEN  =       692.00171487
  -Hartree energ DENC   =     -1172.08051270
  -exchange      EXHF   =         0.00000000
  -V(xc)+E(xc)   XCENC  =        54.87292042
  PAW double counting   =      1326.26363594    -1329.05996156
  entropy T*S    EENTRO =         0.00000000
  eigenvalues    EBANDS =      -203.51736272
  atomic energy  EATOM  =       596.16534815
  Solvation  Ediel_sol  =         0.00000000
  ---------------------------------------------------
  free energy    TOTEN  =       -35.31277697 eV

  energy without entropy =      -35.31277697  energy(sigma->0) =      -35.31277697


--------------------------------------------------------------------------------------------------------




----------------------------------------- Iteration    1(  15)  ---------------------------------------


    POTLOK:  cpu time   22.8805: real time   22.8613
    SETDIJ:  cpu time    0.0080: real time    0.0081
     EDDAV:  cpu time   80.5178: real time   80.4518
       DOS:  cpu time    0.0000: real time    0.0002
    CHARGE:  cpu time    5.8511: real time    5.8468
    MIXING:  cpu time    1.1258: real time    1.1253
    --------------------------------------------
      LOOP:  cpu time  110.3842: real time  110.2971

 eigenvalue-minimisations  :   128
 total energy-change (2. order) :-0.2138543E-02  (-0.1967172E-04)
 number of electron      15.9999989 magnetization 
 augmentation part        0.4284984 magnetization 

 Broyden mixing:
  rms(total) = 0.12682E-02    rms(broyden)= 0.12679E-02
  rms(prec ) = 0.19031E-02
  weight for this iteration     100.00

 eigenvalues of (default mixing * dielectric matrix)
  average eigenvalue GAMMA=   1.8985
  5.8675  2.9052  2.2984  1.5738  1.3691  1.3691  0.6837  0.8856  1.0161  1.0161

 Free energy of the ion-electron system (eV)
  ---------------------------------------------------
  alpha Z        PSCENC =         0.04144063
  Ewald energy   TEWEN  =       692.00171487
  -Hartree energ DENC   =     -1172.22553730
  -exchange      EXHF   =         0.00000000
  -V(xc)+E(xc)   XCENC  =        54.87251963
  PAW double counting   =      1326.27152662    -1329.06810236
  entropy T*S    EENTRO =         0.00000000
  eigenvalues    EBANDS =      -203.37382575
  atomic energy  EATOM  =       596.16534815
  Solvation  Ediel_sol  =         0.00000000
  ---------------------------------------------------
  free energy    TOTEN  =       -35.31491551 eV

  energy without entropy =      -35.31491551  energy(sigma->0) =      -35.31491551


--------------------------------------------------------------------------------------------------------




----------------------------------------- Iteration    1(  16)  ---------------------------------------


    POTLOK:  cpu time   22.9985: real time   22.9793
    SETDIJ:  cpu time    0.0080: real time    0.0082
     EDDAV:  cpu time   72.2770: real time   72.2186
       DOS:  cpu time    0.0000: real time    0.0002
    CHARGE:  cpu time    6.1391: real time    6.1342
    MIXING:  cpu time    1.2488: real time    1.2481
    --------------------------------------------
      LOOP:  cpu time  102.6744: real time  103.4835

 eigenvalue-minimisations  :   112
 total energy-change (2. order) :-0.1971802E-02  (-0.1789676E-04)
 number of electron      15.9999989 magnetization 
 augmentation part        0.4285156 magnetization 

 Broyden mixing:
  rms(total) = 0.91694E-03    rms(broyden)= 0.91663E-03
  rms(prec ) = 0.12308E-02
  weight for this iteration     100.00

 eigenvalues of (default mixing * dielectric matrix)
  average eigenvalue GAMMA=   2.0547
  6.9237  3.4696  2.5101  2.1462  1.6506  1.2244  1.2244  0.6837  0.8870  0.9410
  0.9410

 Free energy of the ion-electron system (eV)
  ---------------------------------------------------
  alpha Z        PSCENC =         0.04144063
  Ewald energy   TEWEN  =       692.00171487
  -Hartree energ DENC   =     -1172.31198526
  -exchange      EXHF   =         0.00000000
  -V(xc)+E(xc)   XCENC  =        54.87005075
  PAW double counting   =      1326.33112823    -1329.12765730
  entropy T*S    EENTRO =         0.00000000
  eigenvalues    EBANDS =      -203.28692738
  atomic energy  EATOM  =       596.16534815
  Solvation  Ediel_sol  =         0.00000000
  ---------------------------------------------------
  free energy    TOTEN  =       -35.31688731 eV

  energy without entropy =      -35.31688731  energy(sigma->0) =      -35.31688731


--------------------------------------------------------------------------------------------------------




----------------------------------------- Iteration    1(  17)  ---------------------------------------


    POTLOK:  cpu time   23.3005: real time   23.2823
    SETDIJ:  cpu time    0.0090: real time    0.0083
     EDDAV:  cpu time   65.1861: real time   65.1323
       DOS:  cpu time    0.0000: real time    0.0002
    CHARGE:  cpu time    5.9021: real time    5.8976
    MIXING:  cpu time    1.3388: real time    1.3371
    --------------------------------------------
      LOOP:  cpu time   95.7374: real time   95.6617

 eigenvalue-minimisations  :    96
 total energy-change (2. order) :-0.1319875E-02  (-0.8002066E-05)
 number of electron      15.9999989 magnetization 
 augmentation part        0.4284998 magnetization 

 Broyden mixing:
  rms(total) = 0.37639E-03    rms(broyden)= 0.37631E-03
  rms(prec ) = 0.54034E-03
  weight for this iteration     100.00

 eigenvalues of (default mixing * dielectric matrix)
  average eigenvalue GAMMA=   2.0989
  7.4746  4.0439  2.5079  2.3106  1.4713  1.4713  1.2290  1.2290  0.6837  0.8780
  0.9439  0.9439

 Free energy of the ion-electron system (eV)
  ---------------------------------------------------
  alpha Z        PSCENC =         0.04144063
  Ewald energy   TEWEN  =       692.00171487
  -Hartree energ DENC   =     -1172.34080086
  -exchange      EXHF   =         0.00000000
  -V(xc)+E(xc)   XCENC  =        54.86778725
  PAW double counting   =      1326.83663307    -1329.63322063
  entropy T*S    EENTRO =         0.00000000
  eigenvalues    EBANDS =      -203.25710966
  atomic energy  EATOM  =       596.16534815
  Solvation  Ediel_sol  =         0.00000000
  ---------------------------------------------------
  free energy    TOTEN  =       -35.31820719 eV

  energy without entropy =      -35.31820719  energy(sigma->0) =      -35.31820719


--------------------------------------------------------------------------------------------------------




----------------------------------------- Iteration    1(  18)  ---------------------------------------


    POTLOK:  cpu time   22.8355: real time   22.8163
    SETDIJ:  cpu time    0.0080: real time    0.0083
     EDDAV:  cpu time   63.0424: real time   62.9915
       DOS:  cpu time    0.0000: real time    0.0002
    CHARGE:  cpu time    6.0311: real time    6.0263
    MIXING:  cpu time    1.3968: real time    1.3957
    --------------------------------------------
      LOOP:  cpu time   93.3158: real time   93.2921

 eigenvalue-minimisations  :    92
 total energy-change (2. order) :-0.4044035E-03  (-0.4057153E-05)
 number of electron      15.9999989 magnetization 
 augmentation part        0.4284978 magnetization 

 Broyden mixing:
  rms(total) = 0.27188E-03    rms(broyden)= 0.27185E-03
  rms(prec ) = 0.36381E-03
  weight for this iteration     100.00

 eigenvalues of (default mixing * dielectric matrix)
  average eigenvalue GAMMA=   2.2291
  8.2801  4.7192  2.6472  2.6472  2.1093  1.6734  1.2096  1.2096  0.6837  0.8762
  0.9858  0.9686  0.9686

 Free energy of the ion-electron system (eV)
  ---------------------------------------------------
  alpha Z        PSCENC =         0.04144063
  Ewald energy   TEWEN  =       692.00171487
  -Hartree energ DENC   =     -1172.33707896
  -exchange      EXHF   =         0.00000000
  -V(xc)+E(xc)   XCENC  =        54.86670012
  PAW double counting   =      1326.76831060    -1329.56481348
  entropy T*S    EENTRO =         0.00000000
  eigenvalues    EBANDS =      -203.26023352
  atomic energy  EATOM  =       596.16534815
  Solvation  Ediel_sol  =         0.00000000
  ---------------------------------------------------
  free energy    TOTEN  =       -35.31861159 eV

  energy without entropy =      -35.31861159  energy(sigma->0) =      -35.31861159


--------------------------------------------------------------------------------------------------------




----------------------------------------- Iteration    1(  19)  ---------------------------------------


    POTLOK:  cpu time   22.7875: real time   22.7688
    SETDIJ:  cpu time    0.0080: real time    0.0084
     EDDAV:  cpu time   60.9887: real time   60.9384
       DOS:  cpu time    0.0000: real time    0.0002
    CHARGE:  cpu time    6.0231: real time    6.0174
    MIXING:  cpu time    1.4278: real time    1.4268
    --------------------------------------------
      LOOP:  cpu time   91.2361: real time   91.4329

 eigenvalue-minimisations  :    88
 total energy-change (2. order) :-0.3007471E-03  (-0.2257789E-05)
 number of electron      15.9999989 magnetization 
 augmentation part        0.4284967 magnetization 

 Broyden mixing:
  rms(total) = 0.12655E-03    rms(broyden)= 0.12651E-03
  rms(prec ) = 0.17029E-03
  weight for this iteration     100.00

 eigenvalues of (default mixing * dielectric matrix)
  average eigenvalue GAMMA=   2.2377
  8.5718  4.8230  3.2803  2.4464  2.2135  1.5641  1.5641  1.2278  1.2278  0.6837
  0.9471  0.9471  0.8860  0.9451

 Free energy of the ion-electron system (eV)
  ---------------------------------------------------
  alpha Z        PSCENC =         0.04144063
  Ewald energy   TEWEN  =       692.00171487
  -Hartree energ DENC   =     -1172.32787345
  -exchange      EXHF   =         0.00000000
  -V(xc)+E(xc)   XCENC  =        54.86579888
  PAW double counting   =      1326.59720248    -1329.39364577
  entropy T*S    EENTRO =         0.00000000
  eigenvalues    EBANDS =      -203.26889813
  atomic energy  EATOM  =       596.16534815
  Solvation  Ediel_sol  =         0.00000000
  ---------------------------------------------------
  free energy    TOTEN  =       -35.31891234 eV

  energy without entropy =      -35.31891234  energy(sigma->0) =      -35.31891234


--------------------------------------------------------------------------------------------------------




----------------------------------------- Iteration    1(  20)  ---------------------------------------


    POTLOK:  cpu time   22.7765: real time   22.7587
    SETDIJ:  cpu time    0.0080: real time    0.0081
     EDDAV:  cpu time   63.7563: real time   63.7040
       DOS:  cpu time    0.0000: real time    0.0002
    --------------------------------------------
      LOOP:  cpu time   86.5428: real time   86.4748

 eigenvalue-minimisations  :    96
 total energy-change (2. order) :-0.9209510E-04  (-0.6745413E-06)
 number of electron      15.9999989 magnetization 
 augmentation part        0.4284967 magnetization 

 Free energy of the ion-electron system (eV)
  ---------------------------------------------------
  alpha Z        PSCENC =         0.04144063
  Ewald energy   TEWEN  =       692.00171487
  -Hartree energ DENC   =     -1172.33743538
  -exchange      EXHF   =         0.00000000
  -V(xc)+E(xc)   XCENC  =        54.86600776
  PAW double counting   =      1326.61772243    -1329.41418066
  entropy T*S    EENTRO =         0.00000000
  eigenvalues    EBANDS =      -203.25962224
  atomic energy  EATOM  =       596.16534815
  Solvation  Ediel_sol  =         0.00000000
  ---------------------------------------------------
  free energy    TOTEN  =       -35.31900443 eV

  energy without entropy =      -35.31900443  energy(sigma->0) =      -35.31900443


--------------------------------------------------------------------------------------------------------




 average (electrostatic) potential at core
  the test charge radii are     0.5201  0.6991  0.7089
  (the norm of the test charge is              1.0000)
       1 -42.8740       2 -42.8751       3 -42.5965       4 -59.8670       5 -59.9846
       6 -73.8071
 
 
 
 E-fermi :  -6.7861     XC(G=0):  -0.0935     alpha+bet : -0.0137


 k-point     1 :       0.2500    0.2500    0.2500
  band No.  band energies     occupation 
      1     -23.1697      2.00000
      2     -18.5474      2.00000
      3     -12.2038      2.00000
      4     -11.4568      2.00000
      5     -11.0480      2.00000
      6      -9.1944      2.00000
      7      -8.3076      2.00000
      8      -7.7021      2.00000
      9      -3.0639      0.00000
     10      -0.4561      0.00000
     11      -0.3776      0.00000
     12      -0.0062      0.00000

 k-point     2 :      -0.2500    0.2500    0.2500
  band No.  band energies     occupation 
      1     -23.1697      2.00000
      2     -18.5474      2.00000
      3     -12.2038      2.00000
      4     -11.4568      2.00000
      5     -11.0480      2.00000
      6      -9.1944      2.00000
      7      -8.3076      2.00000
      8      -7.7021      2.00000
      9      -3.0639      0.00000
     10      -0.4561      0.00000
     11      -0.3776      0.00000
     12      -0.0089      0.00000

 k-point     3 :       0.2500   -0.2500    0.2500
  band No.  band energies     occupation 
      1     -23.1697      2.00000
      2     -18.5474      2.00000
      3     -12.2038      2.00000
      4     -11.4568      2.00000
      5     -11.0480      2.00000
      6      -9.1944      2.00000
      7      -8.3076      2.00000
      8      -7.7021      2.00000
      9      -3.0639      0.00000
     10      -0.4561      0.00000
     11      -0.3776      0.00000
     12      -0.0023      0.00000

 k-point     4 :      -0.2500   -0.2500    0.2500
  band No.  band energies     occupation 
      1     -23.1697      2.00000
      2     -18.5474      2.00000
      3     -12.2038      2.00000
      4     -11.4568      2.00000
      5     -11.0480      2.00000
      6      -9.1944      2.00000
      7      -8.3076      2.00000
      8      -7.7021      2.00000
      9      -3.0639      0.00000
     10      -0.4561      0.00000
     11      -0.3776      0.00000
     12      -0.0078      0.00000


--------------------------------------------------------------------------------------------------------


 soft charge-density along one line, spin component           1
         0         1         2         3         4         5         6         7         8         9
 total charge-density along one line
 
 pseudopotential strength for first ion, spin component:           1
 -2.359  -4.069  -0.002   0.000   0.000
 -4.069  -6.931  -0.006   0.000  -0.002
 -0.002  -0.006  -0.329   0.000   0.001
  0.000   0.000   0.000  -0.334   0.000
  0.000  -0.002   0.001   0.000  -0.334
 total augmentation occupancy for first ion, spin component:           1
  3.563  -0.641   0.440  -0.001   0.115
 -0.641   0.132  -0.080  -0.001  -0.023
  0.440  -0.080   0.055   0.000   0.012
 -0.001  -0.001   0.000   0.009   0.000
  0.115  -0.023   0.012   0.000   0.011


------------------------ aborting loop because EDIFF is reached ----------------------------------------


    CHARGE:  cpu time    5.9271: real time    5.9223
    FORLOC:  cpu time    2.9386: real time    2.9357
    FORNL :  cpu time   18.9611: real time   18.9462
    STRESS:  cpu time   57.8912: real time   57.8424
    FORCOR:  cpu time   24.3953: real time   24.3752
    FORHAR:  cpu time    8.3287: real time    8.3223
    MIXING:  cpu time    1.4428: real time    1.4422
    OFIELD:  cpu time    0.0000: real time    0.0000

  FORCE on cell =-STRESS in cart. coord.  units (eV):
  Direction    XX          YY          ZZ          XY          YZ          ZX
  --------------------------------------------------------------------------------------
  Alpha Z     0.04144     0.04144     0.04144
  Ewald     444.32328    89.13180   158.54678   106.32720    63.63653    90.94770
  Hartree   533.13290   308.18849   331.01334    56.06214    23.72820    34.68631
  E(xc)     -59.44140   -60.04993   -59.80746     0.26646     0.21601     0.33057
  Local   -1136.55442  -565.94245  -649.80714  -157.43446   -81.28486  -119.12129
  n-local   -24.42355   -25.20154   -26.37152    -1.68327    -1.56342    -3.91804
  augment     0.49782     0.46994     0.31672     0.08006    -0.03542     0.16475
  Kinetic   245.76873   252.57029   243.94155    -2.10230    -4.86310    -1.24409
  Fock        0.00000     0.00000     0.00000     0.00000     0.00000     0.00000
  -------------------------------------------------------------------------------------
  Total       3.34479    -0.79197    -2.12628     1.51582    -0.16606     1.84590
  in kB       0.19848    -0.04700    -0.12617     0.08995    -0.00985     0.10954
  external pressure =        0.01 kB  Pullay stress =        0.00 kB


 VOLUME and BASIS-vectors are now :
 -----------------------------------------------------------------------------
  energy-cutoff  :      400.00
  volume of cell :    27000.00
      direct lattice vectors                 reciprocal lattice vectors
    30.000000000  0.000000000  0.000000000     0.033333333  0.000000000  0.000000000
     0.000000000 30.000000000  0.000000000     0.000000000  0.033333333  0.000000000
     0.000000000  0.000000000 30.000000000     0.000000000  0.000000000  0.033333333

  length of vectors
    30.000000000 30.000000000 30.000000000     0.033333333  0.033333333  0.033333333


 FORCES acting on ions
    electron-ion (+dipol)            ewald-force                    non-local-force                 convergence-correction
 -----------------------------------------------------------------------------------------------
   0.275E+02 0.603E+02 -.422E+00   -.295E+02 -.661E+02 0.220E+00   0.140E+01 0.563E+01 -.494E-01   -.259E-04 0.196E-03 0.390E-04
   0.432E+02 -.326E+02 0.382E+02   -.467E+02 0.358E+02 -.421E+02   0.292E+01 -.339E+01 0.369E+01   0.234E-04 -.111E-03 0.167E-03
   0.242E+02 -.196E+02 -.571E+02   -.248E+02 0.215E+02 0.618E+02   0.654E+00 -.202E+01 -.513E+01   -.361E-04 -.578E-04 -.126E-03
   0.102E+03 0.157E+02 -.398E+01   -.107E+03 -.161E+02 0.537E+01   0.522E+01 0.112E+00 -.185E+01   -.460E-03 0.455E-04 0.295E-03
   0.331E+01 0.706E+02 0.166E+03   -.554E+01 -.739E+02 -.173E+03   0.110E+01 0.393E+01 0.889E+01   -.175E-03 0.237E-04 0.142E-03
   -.191E+03 -.838E+02 -.122E+03   0.214E+03 0.988E+02 0.148E+03   -.205E+02 -.148E+02 -.268E+02   -.457E-03 -.625E-04 0.584E-04
 -----------------------------------------------------------------------------------------------
   0.920E+01 0.105E+02 0.212E+02   0.284E-13 0.000E+00 0.284E-13   -.919E+01 -.105E+02 -.212E+02   -.113E-02 0.341E-04 0.575E-03
 
 
 POSITION                                       TOTAL-FORCE (eV/Angst)
 -----------------------------------------------------------------------------------
     14.27419     13.84934     14.94406        -0.574223     -0.187151     -0.251235
     13.99220     15.52135     14.24966        -0.566698     -0.212160     -0.239314
     14.42618     15.30583     15.97179         0.101877     -0.159842     -0.425128
     14.54909     14.90098     14.94756        -0.318826     -0.251913     -0.468925
     16.00164     14.98510     14.55834        -1.125798      0.602589      1.888833
     16.75699     15.43798     15.32859         2.483668      0.208477     -0.504231
 -----------------------------------------------------------------------------------
    total drift:                                0.005522     -0.007623      0.003885


--------------------------------------------------------------------------------------------------------



  FREE ENERGIE OF THE ION-ELECTRON SYSTEM (eV)
  ---------------------------------------------------
  free  energy   TOTEN  =       -35.31900443 eV

  energy  without entropy=      -35.31900443  energy(sigma->0) =      -35.31900443
 


--------------------------------------------------------------------------------------------------------


    POTLOK:  cpu time   21.0328: real time   21.0155


--------------------------------------------------------------------------------------------------------


 NEB: the previous image is higher in energy: T
 NEB: the next image is higher in energy    : F
 NEB: only prev energy greater

 NEB: Tangent
 ----------------------------------------------
     -0.16018     -0.05289     -0.06915
     -0.15749     -0.05820     -0.06658
      0.03183     -0.04413     -0.11880
     -0.08895     -0.07038     -0.13040
     -0.30992      0.16640      0.52188
      0.68471      0.05920     -0.13695

 NEB: forces: par spring, perp REAL, dneb     0.029036    0.021002    0.000000
 NEB: distance to prev, next image, angle between     0.357567    0.351760  156.387057
 NEB: projections on to tangent (spring, REAL)    -0.029036    3.621750

 stress matrix after NEB project (eV)
      3.34479      1.51582      1.84590
      1.51582     -0.79197     -0.16606
      1.84590     -0.16606     -2.12628
  FORCES: max atom, RMS     0.018292    0.014630
  FORCE total and by dimension    0.035836    0.016453
  Stress total and by dimension    5.272683    3.344788
 
 OPT: Flag T
 OPT: FIRE Step
 OPT: FIRE, TIMESTEP      0.10000
 OPT: FIRE, alpha         0.10000


--------------------------------------------------------------------------------------------------------


    WAVPRE:  cpu time    9.8565: real time    9.8481
 FEWALD executed in parallel
    FEWALD:  cpu time    0.0000: real time    0.0004
    ORTHCH:  cpu time    6.8990: real time    6.8929
     LOOP+:  cpu time 2410.2646: real time 2409.5626


----------------------------------------- Iteration    2(   1)  ---------------------------------------


    POTLOK:  cpu time   27.5128: real time   27.4906
    SETDIJ:  cpu time    0.0090: real time    0.0085
     EDDAV:  cpu time   71.4381: real time   71.3801
       DOS:  cpu time    0.0000: real time    0.0002
    CHARGE:  cpu time    5.9631: real time    5.9584
    MIXING:  cpu time    0.6579: real time    0.6570
    --------------------------------------------
      LOOP:  cpu time  105.5819: real time  105.4972

 eigenvalue-minimisations  :   104
 total energy-change (2. order) : 0.9110041E-03  (-0.2101240E-04)
 number of electron      15.9999989 magnetization 
 augmentation part        0.4284808 magnetization 

 Broyden mixing:
  rms(total) = 0.47732E-03    rms(broyden)= 0.47331E-03
  rms(prec ) = 0.48645E-03
  weight for this iteration     100.00

 Free energy of the ion-electron system (eV)
  ---------------------------------------------------
  alpha Z        PSCENC =         0.04144063
  Ewald energy   TEWEN  =       692.02804366
  -Hartree energ DENC   =     -1172.35503354
  -exchange      EXHF   =         0.00000000
  -V(xc)+E(xc)   XCENC  =        54.86602550
  PAW double counting   =      1326.62680391    -1329.42329473
  entropy T*S    EENTRO =         0.00000000
  eigenvalues    EBANDS =      -203.26733492
  atomic energy  EATOM  =       596.16534815
  Solvation  Ediel_sol  =         0.00000000
  ---------------------------------------------------
  free energy    TOTEN  =       -35.31800133 eV

  energy without entropy =      -35.31800133  energy(sigma->0) =      -35.31800133


--------------------------------------------------------------------------------------------------------




----------------------------------------- Iteration    2(   2)  ---------------------------------------


    POTLOK:  cpu time   23.7484: real time   23.7296
    SETDIJ:  cpu time    0.0080: real time    0.0083
     EDDAV:  cpu time   65.5450: real time   65.4905
       DOS:  cpu time    0.0000: real time    0.0002
    CHARGE:  cpu time    5.9761: real time    5.9720
    MIXING:  cpu time    0.6989: real time    0.6976
    --------------------------------------------
      LOOP:  cpu time   95.9774: real time   95.9019

 eigenvalue-minimisations  :    96
 total energy-change (2. order) :-0.9376344E-05  (-0.2098401E-06)
 number of electron      15.9999989 magnetization 
 augmentation part        0.4285164 magnetization 

 Broyden mixing:
  rms(total) = 0.24499E-03    rms(broyden)= 0.24472E-03
  rms(prec ) = 0.25091E-03
  weight for this iteration     100.00

 eigenvalues of (default mixing * dielectric matrix)
  average eigenvalue GAMMA=   1.1696
  1.1696

 Free energy of the ion-electron system (eV)
  ---------------------------------------------------
  alpha Z        PSCENC =         0.04144063
  Ewald energy   TEWEN  =       692.02804366
  -Hartree energ DENC   =     -1172.35332298
  -exchange      EXHF   =         0.00000000
  -V(xc)+E(xc)   XCENC  =        54.86593821
  PAW double counting   =      1326.64850784    -1329.44499159
  entropy T*S    EENTRO =         0.00000000
  eigenvalues    EBANDS =      -203.26897463
  atomic energy  EATOM  =       596.16534815
  Solvation  Ediel_sol  =         0.00000000
  ---------------------------------------------------
  free energy    TOTEN  =       -35.31801071 eV

  energy without entropy =      -35.31801071  energy(sigma->0) =      -35.31801071


--------------------------------------------------------------------------------------------------------




----------------------------------------- Iteration    2(   3)  ---------------------------------------


    POTLOK:  cpu time   23.3055: real time   23.2861
    SETDIJ:  cpu time    0.0080: real time    0.0084
     EDDAV:  cpu time   60.5358: real time   60.4858
       DOS:  cpu time    0.0000: real time    0.0002
    CHARGE:  cpu time    5.9641: real time    5.9598
    MIXING:  cpu time    0.7379: real time    0.7371
    --------------------------------------------
      LOOP:  cpu time   90.5522: real time   92.3874

 eigenvalue-minimisations  :    88
 total energy-change (2. order) :-0.8591283E-05  (-0.3155799E-07)
 number of electron      15.9999989 magnetization 
 augmentation part        0.4285081 magnetization 

 Broyden mixing:
  rms(total) = 0.12964E-03    rms(broyden)= 0.12962E-03
  rms(prec ) = 0.13460E-03
  weight for this iteration     100.00

 eigenvalues of (default mixing * dielectric matrix)
  average eigenvalue GAMMA=   1.5481
  0.8272  2.2691

 Free energy of the ion-electron system (eV)
  ---------------------------------------------------
  alpha Z        PSCENC =         0.04144063
  Ewald energy   TEWEN  =       692.02804366
  -Hartree energ DENC   =     -1172.35416437
  -exchange      EXHF   =         0.00000000
  -V(xc)+E(xc)   XCENC  =        54.86598524
  PAW double counting   =      1326.66457680    -1329.46109683
  entropy T*S    EENTRO =         0.00000000
  eigenvalues    EBANDS =      -203.26815258
  atomic energy  EATOM  =       596.16534815
  Solvation  Ediel_sol  =         0.00000000
  ---------------------------------------------------
  free energy    TOTEN  =       -35.31801930 eV

  energy without entropy =      -35.31801930  energy(sigma->0) =      -35.31801930


--------------------------------------------------------------------------------------------------------




----------------------------------------- Iteration    2(   4)  ---------------------------------------


    POTLOK:  cpu time   23.6434: real time   23.6244
    SETDIJ:  cpu time    0.0080: real time    0.0081
     EDDAV:  cpu time   52.4650: real time   52.4217
[...]
  Solvation  Ediel_sol  =         0.00000000
  ---------------------------------------------------
  free energy    TOTEN  =       -35.55269065 eV

  energy without entropy =      -35.55269065  energy(sigma->0) =      -35.55269065


--------------------------------------------------------------------------------------------------------




----------------------------------------- Iteration  135(   2)  ---------------------------------------


    POTLOK:  cpu time   26.3410: real time   26.3199
    SETDIJ:  cpu time    0.0090: real time    0.0083
     EDDAV:  cpu time   53.1399: real time   53.0972
       DOS:  cpu time    0.0000: real time    0.0002
    CHARGE:  cpu time    6.5920: real time    6.5873
    MIXING:  cpu time    0.7449: real time    0.7445
    --------------------------------------------
      LOOP:  cpu time   86.8288: real time   86.7606

 eigenvalue-minimisations  :    64
 total energy-change (2. order) : 0.2065019E-07  (-0.1097822E-05)
 number of electron      15.9999999 magnetization 
 augmentation part        0.4322592 magnetization 

 Broyden mixing:
  rms(total) = 0.46900E-03    rms(broyden)= 0.46867E-03
  rms(prec ) = 0.47710E-03
  weight for this iteration     100.00

 eigenvalues of (default mixing * dielectric matrix)
  average eigenvalue GAMMA=   1.4474
  1.4474

 Free energy of the ion-electron system (eV)
  ---------------------------------------------------
  alpha Z        PSCENC =         0.04144063
  Ewald energy   TEWEN  =       691.24663617
  -Hartree energ DENC   =     -1171.65664162
  -exchange      EXHF   =         0.00000000
  -V(xc)+E(xc)   XCENC  =        54.93259377
  PAW double counting   =      1344.52300745    -1347.32665902
  entropy T*S    EENTRO =         0.00000000
  eigenvalues    EBANDS =      -203.47841615
  atomic energy  EATOM  =       596.16534815
  Solvation  Ediel_sol  =         0.00000000
  ---------------------------------------------------
  free energy    TOTEN  =       -35.55269063 eV

  energy without entropy =      -35.55269063  energy(sigma->0) =      -35.55269063


--------------------------------------------------------------------------------------------------------




----------------------------------------- Iteration  135(   3)  ---------------------------------------


    POTLOK:  cpu time   24.8692: real time   24.8489
    SETDIJ:  cpu time    0.0090: real time    0.0089
     EDDAV:  cpu time   43.8563: real time   43.8210
       DOS:  cpu time    0.0000: real time    0.0002
    CHARGE:  cpu time    6.1881: real time    6.1836
    MIXING:  cpu time    0.8869: real time    0.8860
    --------------------------------------------
      LOOP:  cpu time   75.8115: real time   75.7518

 eigenvalue-minimisations  :    48
 total energy-change (2. order) :-0.3001524E-06  (-0.1599357E-06)
 number of electron      15.9999999 magnetization 
 augmentation part        0.4322724 magnetization 

 Broyden mixing:
  rms(total) = 0.19893E-03    rms(broyden)= 0.19883E-03
  rms(prec ) = 0.20255E-03
  weight for this iteration     100.00

 eigenvalues of (default mixing * dielectric matrix)
  average eigenvalue GAMMA=   1.5677
  0.8771  2.2583

 Free energy of the ion-electron system (eV)
  ---------------------------------------------------
  alpha Z        PSCENC =         0.04144063
  Ewald energy   TEWEN  =       691.24663617
  -Hartree energ DENC   =     -1171.65518470
  -exchange      EXHF   =         0.00000000
  -V(xc)+E(xc)   XCENC  =        54.93247743
  PAW double counting   =      1344.52406441    -1347.32768142
  entropy T*S    EENTRO =         0.00000000
  eigenvalues    EBANDS =      -203.47979160
  atomic energy  EATOM  =       596.16534815
  Solvation  Ediel_sol  =         0.00000000
  ---------------------------------------------------
  free energy    TOTEN  =       -35.55269093 eV

  energy without entropy =      -35.55269093  energy(sigma->0) =      -35.55269093


--------------------------------------------------------------------------------------------------------




----------------------------------------- Iteration  135(   4)  ---------------------------------------


    POTLOK:  cpu time   26.0470: real time   26.0259
    SETDIJ:  cpu time    0.0080: real time    0.0082
     EDDAV:  cpu time   44.5472: real time   44.5111
       DOS:  cpu time    0.0000: real time    0.0002
    CHARGE:  cpu time    6.2560: real time    6.2511
    MIXING:  cpu time    0.8279: real time    0.8272
    --------------------------------------------
      LOOP:  cpu time   77.6882: real time   77.6279

 eigenvalue-minimisations  :    48
 total energy-change (2. order) :-0.1457192E-06  (-0.4859489E-07)
 number of electron      15.9999999 magnetization 
 augmentation part        0.4322684 magnetization 

 Broyden mixing:
  rms(total) = 0.55288E-04    rms(broyden)= 0.55198E-04
  rms(prec ) = 0.56819E-04
  weight for this iteration     100.00

 eigenvalues of (default mixing * dielectric matrix)
  average eigenvalue GAMMA=   1.4241
  2.2574  1.2099  0.8050

 Free energy of the ion-electron system (eV)
  ---------------------------------------------------
  alpha Z        PSCENC =         0.04144063
  Ewald energy   TEWEN  =       691.24663617
  -Hartree energ DENC   =     -1171.65493455
  -exchange      EXHF   =         0.00000000
  -V(xc)+E(xc)   XCENC  =        54.93246281
  PAW double counting   =      1344.53009189    -1347.33370478
  entropy T*S    EENTRO =         0.00000000
  eigenvalues    EBANDS =      -203.48003139
  atomic energy  EATOM  =       596.16534815
  Solvation  Ediel_sol  =         0.00000000
  ---------------------------------------------------
  free energy    TOTEN  =       -35.55269107 eV

  energy without entropy =      -35.55269107  energy(sigma->0) =      -35.55269107


--------------------------------------------------------------------------------------------------------




----------------------------------------- Iteration  135(   5)  ---------------------------------------


    POTLOK:  cpu time   27.5658: real time   27.5444
    SETDIJ:  cpu time    0.0090: real time    0.0087
     EDDAV:  cpu time   43.6734: real time   43.6370
       DOS:  cpu time    0.0000: real time    0.0002
    CHARGE:  cpu time    6.0511: real time    6.0456
    MIXING:  cpu time    0.8169: real time    0.8162
    --------------------------------------------
      LOOP:  cpu time   78.1171: real time   78.0559

 eigenvalue-minimisations  :    48
 total energy-change (2. order) :-0.1841386E-07  (-0.1421723E-07)
 number of electron      15.9999999 magnetization 
 augmentation part        0.4322698 magnetization 

 Broyden mixing:
  rms(total) = 0.30603E-04    rms(broyden)= 0.30595E-04
  rms(prec ) = 0.31502E-04
  weight for this iteration     100.00

 eigenvalues of (default mixing * dielectric matrix)
  average eigenvalue GAMMA=   1.5874
  2.4138  2.0302  0.7991  1.1063

 Free energy of the ion-electron system (eV)
  ---------------------------------------------------
  alpha Z        PSCENC =         0.04144063
  Ewald energy   TEWEN  =       691.24663617
  -Hartree energ DENC   =     -1171.65478903
  -exchange      EXHF   =         0.00000000
  -V(xc)+E(xc)   XCENC  =        54.93246292
  PAW double counting   =      1344.53394723    -1347.33756269
  entropy T*S    EENTRO =         0.00000000
  eigenvalues    EBANDS =      -203.48017447
  atomic energy  EATOM  =       596.16534815
  Solvation  Ediel_sol  =         0.00000000
  ---------------------------------------------------
  free energy    TOTEN  =       -35.55269109 eV

  energy without entropy =      -35.55269109  energy(sigma->0) =      -35.55269109


--------------------------------------------------------------------------------------------------------




----------------------------------------- Iteration  135(   6)  ---------------------------------------


    POTLOK:  cpu time   25.7011: real time   25.6803
    SETDIJ:  cpu time    0.0080: real time    0.0084
     EDDAV:  cpu time   43.7434: real time   43.7071
       DOS:  cpu time    0.0000: real time    0.0002
    --------------------------------------------
      LOOP:  cpu time   69.4534: real time   69.4001

 eigenvalue-minimisations  :    48
 total energy-change (2. order) :-0.1785111E-07  (-0.6366872E-08)
 number of electron      15.9999999 magnetization 
 augmentation part        0.4322698 magnetization 

 Free energy of the ion-electron system (eV)
  ---------------------------------------------------
  alpha Z        PSCENC =         0.04144063
  Ewald energy   TEWEN  =       691.24663617
  -Hartree energ DENC   =     -1171.65470556
  -exchange      EXHF   =         0.00000000
  -V(xc)+E(xc)   XCENC  =        54.93246758
  PAW double counting   =      1344.54070227    -1347.34432207
  entropy T*S    EENTRO =         0.00000000
  eigenvalues    EBANDS =      -203.48025829
  atomic energy  EATOM  =       596.16534815
  Solvation  Ediel_sol  =         0.00000000
  ---------------------------------------------------
  free energy    TOTEN  =       -35.55269111 eV

  energy without entropy =      -35.55269111  energy(sigma->0) =      -35.55269111


--------------------------------------------------------------------------------------------------------




 average (electrostatic) potential at core
  the test charge radii are     0.5201  0.6991  0.7089
  (the norm of the test charge is              1.0000)
       1 -42.9163       2 -42.9145       3 -42.6700       4 -59.8579       5 -60.0003
       6 -73.6827
 
 
 
 E-fermi :  -6.7308     XC(G=0):  -0.0592     alpha+bet : -0.0137


 k-point     1 :       0.2500    0.2500    0.2500
  band No.  band energies     occupation 
      1     -23.0638      2.00000
      2     -18.7012      2.00000
      3     -12.2596      2.00000
      4     -11.4874      2.00000
      5     -11.1347      2.00000
      6      -9.0988      2.00000
      7      -8.2671      2.00000
      8      -7.7275      2.00000
      9      -2.8459      0.00000
     10      -0.4278      0.00000
     11      -0.3908      0.00000
     12       0.0288      0.00000

 k-point     2 :      -0.2500    0.2500    0.2500
  band No.  band energies     occupation 
      1     -23.0638      2.00000
      2     -18.7012      2.00000
      3     -12.2596      2.00000
      4     -11.4874      2.00000
      5     -11.1347      2.00000
      6      -9.0988      2.00000
      7      -8.2671      2.00000
      8      -7.7275      2.00000
      9      -2.8459      0.00000
     10      -0.4278      0.00000
     11      -0.3908      0.00000
     12       0.0261      0.00000

 k-point     3 :       0.2500   -0.2500    0.2500
  band No.  band energies     occupation 
      1     -23.0638      2.00000
      2     -18.7012      2.00000
      3     -12.2596      2.00000
      4     -11.4874      2.00000
      5     -11.1347      2.00000
      6      -9.0988      2.00000
      7      -8.2671      2.00000
      8      -7.7275      2.00000
      9      -2.8459      0.00000
     10      -0.4278      0.00000
     11      -0.3908      0.00000
     12       0.0273      0.00000

 k-point     4 :      -0.2500   -0.2500    0.2500
  band No.  band energies     occupation 
      1     -23.0638      2.00000
      2     -18.7012      2.00000
      3     -12.2596      2.00000
      4     -11.4874      2.00000
      5     -11.1347      2.00000
      6      -9.0988      2.00000
      7      -8.2671      2.00000
      8      -7.7275      2.00000
      9      -2.8459      0.00000
     10      -0.4278      0.00000
     11      -0.3908      0.00000
     12       0.0272      0.00000


--------------------------------------------------------------------------------------------------------


 soft charge-density along one line, spin component           1
         0         1         2         3         4         5         6         7         8         9
 total charge-density along one line
 
 pseudopotential strength for first ion, spin component:           1
 -2.360  -4.070  -0.002   0.000   0.000
 -4.070  -6.934  -0.006   0.000  -0.002
 -0.002  -0.006  -0.329   0.000   0.001
  0.000   0.000   0.000  -0.334   0.000
  0.000  -0.002   0.001   0.000  -0.334
 total augmentation occupancy for first ion, spin component:           1
  3.554  -0.639   0.438   0.000   0.113
 -0.639   0.131  -0.080  -0.001  -0.022
  0.438  -0.080   0.055   0.000   0.012
  0.000  -0.001   0.000   0.009   0.000
  0.113  -0.022   0.012   0.000   0.011


------------------------ aborting loop because EDIFF is reached ----------------------------------------


    CHARGE:  cpu time    5.9121: real time    5.9076
    FORLOC:  cpu time    2.8696: real time    2.8668
    FORNL :  cpu time   19.0201: real time   19.0047
    STRESS:  cpu time   59.0900: real time   59.0410
    FORCOR:  cpu time   23.5374: real time   23.5184
    FORHAR:  cpu time    8.3357: real time    8.3292
    MIXING:  cpu time    0.7859: real time    0.7847
    OFIELD:  cpu time    0.0000: real time    0.0000

  FORCE on cell =-STRESS in cart. coord.  units (eV):
  Direction    XX          YY          ZZ          XY          YZ          ZX
  --------------------------------------------------------------------------------------
  Alpha Z     0.04144     0.04144     0.04144
  Ewald     462.43170    85.65063   143.16432   110.54729    56.51145    95.75809
  Hartree   539.62655   307.05969   324.96850    57.87118    21.00188    36.81352
  E(xc)     -59.44006   -60.13178   -59.93252     0.28008     0.19000     0.34567
  Local   -1159.94260  -561.48473  -629.32400  -162.91203   -71.86263  -124.94659
  n-local   -25.31780   -25.24051   -26.10428    -1.63130    -1.30637    -3.65241
  augment     0.52506     0.44469     0.28721     0.06894    -0.04188     0.12026
  Kinetic   245.48215   252.84547   244.87011    -2.84798    -4.64402    -2.90343
  Fock        0.00000     0.00000     0.00000     0.00000     0.00000     0.00000
  -------------------------------------------------------------------------------------
  Total       3.40644    -0.81510    -2.02921     1.37619    -0.15159     1.53510
  in kB       0.20214    -0.04837    -0.12041     0.08166    -0.00900     0.09109
  external pressure =        0.01 kB  Pullay stress =        0.00 kB


 VOLUME and BASIS-vectors are now :
 -----------------------------------------------------------------------------
  energy-cutoff  :      400.00
  volume of cell :    27000.00
      direct lattice vectors                 reciprocal lattice vectors
    30.000000000  0.000000000  0.000000000     0.033333333  0.000000000  0.000000000
     0.000000000 30.000000000  0.000000000     0.000000000  0.033333333  0.000000000
     0.000000000  0.000000000 30.000000000     0.000000000  0.000000000  0.033333333

  length of vectors
    30.000000000 30.000000000 30.000000000     0.033333333  0.033333333  0.033333333


 FORCES acting on ions
    electron-ion (+dipol)            ewald-force                    non-local-force                 convergence-correction
 -----------------------------------------------------------------------------------------------
   0.272E+02 0.603E+02 -.592E-01   -.291E+02 -.661E+02 -.153E+00   0.139E+01 0.561E+01 -.405E-01   -.159E-05 -.348E-04 -.438E-05
   0.434E+02 -.323E+02 0.381E+02   -.469E+02 0.355E+02 -.420E+02   0.296E+01 -.336E+01 0.366E+01   -.268E-04 -.214E-05 -.277E-04
   0.241E+02 -.194E+02 -.573E+02   -.247E+02 0.213E+02 0.620E+02   0.612E+00 -.201E+01 -.514E+01   -.110E-04 -.786E-05 0.261E-04
   0.103E+03 0.170E+02 -.210E+01   -.108E+03 -.174E+02 0.341E+01   0.509E+01 0.185E+00 -.170E+01   -.138E-04 -.126E-03 -.251E-04
   0.105E+02 0.650E+02 0.157E+03   -.127E+02 -.678E+02 -.163E+03   0.129E+01 0.333E+01 0.771E+01   0.387E-04 -.206E-03 -.386E-04
   -.197E+03 -.799E+02 -.114E+03   0.222E+03 0.945E+02 0.139E+03   -.230E+02 -.144E+02 -.258E+02   -.120E-03 -.346E-03 -.206E-04
 -----------------------------------------------------------------------------------------------
   0.116E+02 0.106E+02 0.213E+02   0.000E+00 0.000E+00 0.000E+00   -.117E+02 -.106E+02 -.213E+02   -.135E-03 -.722E-03 -.905E-04
 
 
 POSITION                                       TOTAL-FORCE (eV/Angst)
 -----------------------------------------------------------------------------------
     14.27123     13.84348     14.93408        -0.528908     -0.171893     -0.253435
     13.97894     15.51545     14.24517        -0.530267     -0.209601     -0.238199
     14.42315     15.29789     15.96478        -0.019663     -0.158036     -0.379771
     14.54301     14.89698     14.93986        -0.310947     -0.211022     -0.390379
     15.98614     15.00793     14.59739        -0.957905      0.598579      1.882607
     16.79783     15.43884     15.31872         2.347690      0.151972     -0.620823
 -----------------------------------------------------------------------------------
    total drift:                               -0.006426     -0.003111      0.002874


--------------------------------------------------------------------------------------------------------



  FREE ENERGIE OF THE ION-ELECTRON SYSTEM (eV)
  ---------------------------------------------------
  free  energy   TOTEN  =       -35.55269111 eV

  energy  without entropy=      -35.55269111  energy(sigma->0) =      -35.55269111
 
 d Force = 0.8688512E-03[ 0.868E-03, 0.869E-03]  d Energy = 0.8688953E-03-0.441E-07
 d Force = 0.1026508E-01[ 0.103E-01, 0.102E-01]  d Ewald  = 0.1026508E-01 0.728E-09


--------------------------------------------------------------------------------------------------------


    POTLOK:  cpu time   21.5147: real time   21.4966


--------------------------------------------------------------------------------------------------------


 NEB: the previous image is higher in energy: T
 NEB: the next image is higher in energy    : F
 NEB: only prev energy greater

 NEB: Tangent
 ----------------------------------------------
     -0.15275     -0.05000     -0.07348
     -0.15361     -0.06076     -0.06842
     -0.00536     -0.04635     -0.10976
     -0.08959     -0.06099     -0.11321
     -0.27825      0.17401      0.54297
      0.67958      0.04410     -0.17811

 NEB: forces: par spring, perp REAL, dneb     0.000842    0.009880    0.000000
 NEB: distance to prev, next image, angle between     0.346733    0.346565  154.656411
 NEB: projections on to tangent (spring, REAL)    -0.000842    3.458140

 stress matrix after NEB project (eV)
      3.40644      1.37619      1.53510
      1.37619     -0.81510     -0.15159
      1.53510     -0.15159     -2.02921
  FORCES: max atom, RMS     0.007208    0.004048
  FORCE total and by dimension    0.009915    0.004745
  Stress total and by dimension    4.993267    3.406437
 OPT: skip step - force has converged


--------------------------------------------------------------------------------------------------------


  
 reached required accuracy - stopping structural energy minimisation
     LOOP+:  cpu time  680.9395: real time  680.4134
    4ORBIT:  cpu time    0.0000: real time    0.0000

 total amount of memory used by VASP on root node  3203888. kBytes
========================================================================

   base      :      30000. kBytes
   nonlr-proj:        692. kBytes
   fftplans  :     924480. kBytes
   grid      :    1872000. kBytes
   one-center:         18. kBytes
   wavefun   :     376698. kBytes
 
  
  
 General timing and accounting informations for this job:
 ========================================================
  
                  Total CPU time used (sec):    97147.727
                            User time (sec):    95637.697
                          System time (sec):     1510.032
                         Elapsed time (sec):    97128.526
  
                   Maximum memory used (kb):     4749236.
                   Average memory used (kb):           0.
  
                          Minor page faults:    114729348
                          Major page faults:            8
                 Voluntary context switches:        15803
