 vasp.5.4.1 24Jun15 (build Jan 13 2020 12:58:22) complex                        
  
 POSCAR found type information on POSCAR  H  C  N 
 10/POSCAR found :  3 types and       6 ions
 scaLAPACK will be used

 ----------------------------------------------------------------------------- 
|                                                                             |
|  ADVICE TO THIS USER RUNNING 'VASP/VAMP'   (HEAR YOUR MASTER'S VOICE ...):  |
|                                                                             |
|      You have a (more or less) 'small supercell' and for smaller cells      |
|      it is recommended  to use the reciprocal-space projection scheme!      |
|      The real space optimization is not  efficient for small cells and it   |
|      is also less accurate ...                                              |
|      Therefore set LREAL=.FALSE. in the  INCAR file                         |
|                                                                             |
 ----------------------------------------------------------------------------- 

 LDA part: xc-table for Pade appr. of Perdew
 POSCAR found type information on POSCAR  H  C  N 
 00/POSCAR found :  3 types and       6 ions
 POSCAR found type information on POSCAR  H  C  N 
 16/POSCAR found :  3 types and       6 ions
 Jacobian:    40.4401846379183     
 POSCAR, INCAR and KPOINTS ok, starting setup
 WARNING: small aliasing (wrap around) errors must be expected
 FFT: planning ...
 WAVECAR not read
 entering main loop
       N       E                     dE             d eps       ncg     rms          rms(c)
DAV:   1     0.113562425989E+03    0.11356E+03   -0.21311E+03   160   0.366E+02
DAV:   2    -0.164181411389E+01   -0.11520E+03   -0.11241E+03   192   0.103E+02
DAV:   3    -0.361728625875E+02   -0.34531E+02   -0.33982E+02   128   0.961E+01
DAV:   4    -0.391748639533E+02   -0.30020E+01   -0.29090E+01    96   0.305E+01
DAV:   5    -0.392626163781E+02   -0.87752E-01   -0.87656E-01   160   0.510E+00    0.109E+01
DAV:   6    -0.361445069653E+02    0.31181E+01   -0.60751E+00   112   0.176E+01    0.618E+00
DAV:   7    -0.355369351954E+02    0.60757E+00   -0.16445E+00   112   0.984E+00    0.332E+00
DAV:   8    -0.353312192786E+02    0.20572E+00   -0.47224E-01   128   0.589E+00    0.128E+00
DAV:   9    -0.353035634960E+02    0.27656E-01   -0.57285E-02    96   0.194E+00    0.393E-01
DAV:  10    -0.353000024173E+02    0.35611E-02   -0.57358E-03   128   0.700E-01    0.157E-01
DAV:  11    -0.353003645129E+02   -0.36210E-03   -0.19837E-03    96   0.341E-01    0.874E-02
DAV:  12    -0.353039754367E+02   -0.36109E-02   -0.15128E-03   112   0.331E-01    0.464E-02
DAV:  13    -0.353083085886E+02   -0.43332E-02   -0.17747E-03   144   0.260E-01    0.324E-02
DAV:  14    -0.353127769663E+02   -0.44684E-02   -0.64844E-04   124   0.158E-01    0.240E-02
DAV:  15    -0.353149155098E+02   -0.21385E-02   -0.19672E-04   128   0.831E-02    0.127E-02
DAV:  16    -0.353168873114E+02   -0.19718E-02   -0.17897E-04   112   0.740E-02    0.917E-03
DAV:  17    -0.353182071869E+02   -0.13199E-02   -0.80021E-05    96   0.508E-02    0.376E-03
DAV:  18    -0.353186115904E+02   -0.40440E-03   -0.40572E-05    92   0.314E-02    0.272E-03
DAV:  19    -0.353189123375E+02   -0.30075E-03   -0.22578E-05    88   0.221E-02    0.127E-03
DAV:  20    -0.353190044326E+02   -0.92095E-04   -0.67454E-06    96   0.148E-02
   1 F= -.35319004E+02 E0= -.35319004E+02  d E =-.353190E+02
damped:  g(F)=  0.000E+00 g(S)=  0.000E+00 dE (1.order)= 0.000E+00
 bond charge predicted
       N       E                     dE             d eps       ncg     rms          rms(c)
DAV:   1    -0.353180013334E+02    0.91100E-03   -0.21012E-04   104   0.138E-01    0.477E-03
DAV:   2    -0.353180107097E+02   -0.93763E-05   -0.20984E-06    96   0.137E-02    0.245E-03
DAV:   3    -0.353180193010E+02   -0.85913E-05   -0.31558E-07    88   0.517E-03    0.130E-03
DAV:   4    -0.353180308682E+02   -0.11567E-04   -0.10652E-07    72   0.282E-03    0.292E-04
DAV:   5    -0.353180362108E+02   -0.53426E-05   -0.24162E-08    88   0.123E-03    0.166E-04
DAV:   6    -0.353180424640E+02   -0.62532E-05   -0.98214E-09    68   0.806E-04
   2 F= -.35318042E+02 E0= -.35318042E+02  d E =0.961969E-03
damped:  g(F)=  0.000E+00 g(S)=  0.000E+00 dE (1.order)= 0.000E+00
 bond charge predicted
       N       E                     dE             d eps       ncg     rms          rms(c)
DAV:   1    -0.353161093909E+02    0.19268E-02   -0.64394E-04    96   0.243E-01    0.943E-03
DAV:   2    -0.353161088029E+02    0.58801E-06   -0.50560E-06    92   0.256E-02    0.451E-03
DAV:   3    -0.353161095816E+02   -0.77870E-06   -0.88167E-07    48   0.958E-03    0.249E-03
DAV:   4    -0.353161112962E+02   -0.17147E-05   -0.31106E-07    64   0.506E-03    0.461E-04
DAV:   5    -0.353161117936E+02   -0.49743E-06   -0.58799E-08    48   0.217E-03    0.253E-04
DAV:   6    -0.353161124970E+02   -0.70339E-06   -0.19184E-08    72   0.978E-04
   3 F= -.35316112E+02 E0= -.35316112E+02  d E =0.192997E-02
damped:  g(F)=  0.000E+00 g(S)=  0.000E+00 dE (1.order)= 0.000E+00
 bond charge predicted
       N       E                     dE             d eps       ncg     rms          rms(c)
DAV:   1    -0.353135918472E+02    0.25199E-02   -0.10906E-03    96   0.315E-01    0.122E-02
DAV:   2    -0.353135894565E+02    0.23907E-05   -0.86580E-06    76   0.332E-02    0.587E-03
DAV:   3    -0.353135897356E+02   -0.27912E-06   -0.14885E-06    56   0.124E-02    0.325E-03
DAV:   4    -0.353135905204E+02   -0.78479E-06   -0.52617E-07    64   0.658E-03    0.591E-04
DAV:   5    -0.353135906639E+02   -0.14347E-06   -0.10699E-07    48   0.281E-03    0.324E-04
DAV:   6    -0.353135908764E+02   -0.21248E-06   -0.39406E-08    64   0.125E-03
   4 F= -.35313591E+02 E0= -.35313591E+02  d E =0.252162E-02
damped:  g(F)=  0.000E+00 g(S)=  0.000E+00 dE (1.order)= 0.000E+00
 bond charge predicted
       N       E                     dE             d eps       ncg     rms          rms(c)
DAV:   1    -0.353135800706E+02    0.10593E-04   -0.14608E-06    48   0.113E-02    0.405E-04
DAV:   2    -0.353135801804E+02   -0.10974E-06   -0.83345E-08    48   0.263E-03    0.246E-04
DAV:   3    -0.353135802575E+02   -0.77111E-07   -0.23818E-08    48   0.837E-04    0.170E-04
DAV:   4    -0.353135804178E+02   -0.16028E-06   -0.21111E-08    64   0.557E-04    0.613E-05
DAV:   5    -0.353135804895E+02   -0.71714E-07   -0.18004E-08    48   0.275E-04    0.430E-05
DAV:   6    -0.353135806179E+02   -0.12845E-06   -0.18614E-08    64   0.193E-04
   5 F= -.35313581E+02 E0= -.35313581E+02  d E =0.102584E-04
damped:  g(F)=  0.000E+00 g(S)=  0.000E+00 dE (1.order)= 0.000E+00
 bond charge predicted
       N       E                     dE             d eps       ncg     rms          rms(c)
DAV:   1    -0.353136978400E+02   -0.11735E-03   -0.72303E-06    48   0.265E-02    0.769E-04
DAV:   2    -0.353136979063E+02   -0.66226E-07   -0.30657E-07    48   0.573E-03    0.422E-04
DAV:   3    -0.353136979453E+02   -0.39019E-07   -0.51800E-08    48   0.176E-03    0.257E-04
DAV:   4    -0.353136979979E+02   -0.52600E-07   -0.27477E-08    48   0.839E-04    0.843E-05
DAV:   5    -0.353136980315E+02   -0.33613E-07   -0.22014E-08    48   0.408E-04    0.442E-05
DAV:   6    -0.353136980620E+02   -0.30542E-07   -0.21429E-08    48   0.227E-04
   6 F= -.35313698E+02 E0= -.35313698E+02  d E =-.117444E-03
damped:  g(F)=  0.000E+00 g(S)=  0.000E+00 dE (1.order)= 0.000E+00
 bond charge predicted
       N       E                     dE             d eps       ncg     rms          rms(c)
DAV:   1    -0.353141551938E+02   -0.45716E-03   -0.57098E-05    48   0.749E-02    0.236E-03
DAV:   2    -0.353141553187E+02   -0.12492E-06   -0.23641E-06    64   0.160E-02    0.131E-03
DAV:   3    -0.353141553654E+02   -0.46633E-07   -0.32320E-07    48   0.511E-03    0.657E-04
DAV:   4    -0.353141553819E+02   -0.16552E-07   -0.96241E-08    48   0.247E-03    0.264E-04
DAV:   5    -0.353141553884E+02   -0.64454E-08   -0.42863E-08    48   0.112E-03    0.133E-04
DAV:   6    -0.353141553925E+02   -0.41458E-08   -0.28990E-08    48   0.644E-04
   7 F= -.35314155E+02 E0= -.35314155E+02  d E =-.457330E-03
damped:  g(F)=  0.000E+00 g(S)=  0.000E+00 dE (1.order)= 0.000E+00
 bond charge predicted
       N       E                     dE             d eps       ncg     rms          rms(c)
DAV:   1    -0.353152552803E+02   -0.10999E-02   -0.28969E-04    96   0.166E-01    0.557E-03
DAV:   2    -0.353152548929E+02    0.38749E-06   -0.34469E-06    72   0.168E-02    0.304E-03
DAV:   3    -0.353152549618E+02   -0.68964E-07   -0.70518E-07    48   0.787E-03    0.125E-03
DAV:   4    -0.353152549813E+02   -0.19484E-07   -0.19153E-07    48   0.388E-03    0.482E-04
DAV:   5    -0.353152549814E+02   -0.11028E-09   -0.56379E-08    48   0.171E-03    0.213E-04
DAV:   6    -0.353152549850E+02   -0.35600E-08   -0.35330E-08    48   0.101E-03
   8 F= -.35315255E+02 E0= -.35315255E+02  d E =-.109959E-02
damped:  g(F)=  0.000E+00 g(S)=  0.000E+00 dE (1.order)= 0.000E+00
 bond charge predicted
       N       E                     dE             d eps       ncg     rms          rms(c)
DAV:   1    -0.353174293344E+02   -0.21744E-02   -0.10272E-03    96   0.311E-01    0.106E-02
DAV:   2    -0.353174278859E+02    0.14485E-05   -0.11444E-05    64   0.310E-02    0.569E-03
DAV:   3    -0.353174280830E+02   -0.19714E-06   -0.21815E-06    64   0.140E-02    0.254E-03
DAV:   4    -0.353174281995E+02   -0.11648E-06   -0.61402E-07    48   0.717E-03    0.853E-04
DAV:   5    -0.353174282082E+02   -0.86684E-08   -0.14716E-07    48   0.319E-03    0.364E-04
DAV:   6    -0.353174282372E+02   -0.29008E-07   -0.68483E-08    48   0.179E-03
   9 F= -.35317428E+02 E0= -.35317428E+02  d E =-.217325E-02
damped:  g(F)=  0.000E+00 g(S)=  0.000E+00 dE (1.order)= 0.000E+00
 bond charge predicted
       N       E                     dE             d eps       ncg     rms          rms(c)
DAV:   1    -0.353213311368E+02   -0.39029E-02   -0.30612E-03    96   0.535E-01    0.187E-02
DAV:   2    -0.353213264995E+02    0.46374E-05   -0.31416E-05    64   0.526E-02    0.970E-03
DAV:   3    -0.353213269350E+02   -0.43556E-06   -0.56227E-06    64   0.226E-02    0.477E-03
DAV:   4    -0.353213274625E+02   -0.52745E-06   -0.17861E-06    64   0.121E-02    0.133E-03
DAV:   5    -0.353213275210E+02   -0.58499E-07   -0.40168E-07    48   0.545E-03    0.574E-04
DAV:   6    -0.353213276309E+02   -0.10994E-06   -0.14984E-07    48   0.287E-03
  10 F= -.35321328E+02 E0= -.35321328E+02  d E =-.389939E-02
damped:  g(F)=  0.000E+00 g(S)=  0.000E+00 dE (1.order)= 0.000E+00
 bond charge predicted
       N       E                     dE             d eps       ncg     rms          rms(c)
DAV:   1    -0.353286840390E+02   -0.73565E-02   -0.10283E-02    96   0.978E-01    0.348E-02
DAV:   2    -0.353286671885E+02    0.16850E-04   -0.97142E-05    64   0.952E-02    0.176E-02
DAV:   3    -0.353286684420E+02   -0.12535E-05   -0.17048E-05    64   0.396E-02    0.908E-03
DAV:   4    -0.353286705752E+02   -0.21333E-05   -0.58786E-06    80   0.216E-02    0.223E-03
DAV:   5    -0.353286707932E+02   -0.21797E-06   -0.12765E-06    48   0.978E-03    0.103E-03
DAV:   6    -0.353286711470E+02   -0.35382E-06   -0.43498E-07    48   0.498E-03
  11 F= -.35328671E+02 E0= -.35328671E+02  d E =-.734352E-02
damped:  g(F)=  0.000E+00 g(S)=  0.000E+00 dE (1.order)= 0.000E+00
 bond charge predicted
       N       E                     dE             d eps       ncg     rms          rms(c)
DAV:   1    -0.353401960622E+02   -0.11525E-01   -0.23866E-02    96   0.148E+00    0.554E-02
DAV:   2    -0.353401501165E+02    0.45946E-04   -0.23201E-04    96   0.146E-01    0.277E-02
DAV:   3    -0.353401493288E+02    0.78774E-06   -0.21861E-05    64   0.502E-02    0.151E-02
DAV:   4    -0.353401553423E+02   -0.60135E-05   -0.94684E-06    96   0.283E-02    0.258E-03
DAV:   5    -0.353401558923E+02   -0.55002E-06   -0.17361E-06    48   0.120E-02    0.140E-03
DAV:   6    -0.353401567041E+02   -0.81175E-06   -0.44725E-07    48   0.548E-03
  12 F= -.35340157E+02 E0= -.35340157E+02  d E =-.114856E-01
damped:  g(F)=  0.000E+00 g(S)=  0.000E+00 dE (1.order)= 0.000E+00
 bond charge predicted
       N       E                     dE             d eps       ncg     rms          rms(c)
DAV:   1    -0.353564752340E+02   -0.16319E-01   -0.46459E-02    96   0.206E+00    0.807E-02
DAV:   2    -0.353563688006E+02    0.10643E-03   -0.43163E-04    96   0.209E-01    0.395E-02
DAV:   3    -0.353563651444E+02    0.36562E-05   -0.49774E-05    64   0.757E-02    0.214E-02
DAV:   4    -0.353563787581E+02   -0.13614E-04   -0.21919E-05    96   0.428E-02    0.390E-03
DAV:   5    -0.353563798581E+02   -0.11000E-05   -0.39061E-06    48   0.185E-02    0.221E-03
DAV:   6    -0.353563815326E+02   -0.16745E-05   -0.85850E-07    48   0.800E-03
  13 F= -.35356382E+02 E0= -.35356382E+02  d E =-.162248E-01
damped:  g(F)=  0.000E+00 g(S)=  0.000E+00 dE (1.order)= 0.000E+00
 bond charge predicted
       N       E                     dE             d eps       ncg     rms          rms(c)
DAV:   1    -0.353779128175E+02   -0.21533E-01   -0.78902E-02    96   0.267E+00    0.103E-01
DAV:   2    -0.353777448440E+02    0.16797E-03   -0.68543E-04   120   0.263E-01    0.506E-02
DAV:   3    -0.353777434496E+02    0.13944E-05   -0.76902E-05    64   0.922E-02    0.276E-02
DAV:   4    -0.353777682171E+02   -0.24767E-04   -0.29326E-05    96   0.502E-02    0.471E-03
DAV:   5    -0.353777705364E+02   -0.23193E-05   -0.51157E-06    48   0.208E-02    0.264E-03
DAV:   6    -0.353777736723E+02   -0.31359E-05   -0.12752E-06    64   0.939E-03
  14 F= -.35377774E+02 E0= -.35377774E+02  d E =-.213921E-01
damped:  g(F)=  0.000E+00 g(S)=  0.000E+00 dE (1.order)= 0.000E+00
 bond charge predicted
       N       E                     dE             d eps       ncg     rms          rms(c)
DAV:   1    -0.354040151606E+02   -0.26245E-01   -0.11997E-01    96   0.326E+00    0.119E-01
DAV:   2    -0.354038198149E+02    0.19535E-03   -0.10198E-03   128   0.305E-01    0.608E-02
DAV:   3    -0.354038318889E+02   -0.12074E-04   -0.89758E-05    64   0.970E-02    0.330E-02
DAV:   4    -0.354038676734E+02   -0.35784E-04   -0.32428E-05    80   0.543E-02    0.594E-03
DAV:   5    -0.354038717618E+02   -0.40884E-05   -0.54603E-06    60   0.212E-02    0.308E-03
DAV:   6    -0.354038772929E+02   -0.55311E-05   -0.16931E-06    80   0.105E-02
  15 F= -.35403877E+02 E0= -.35403877E+02  d E =-.261036E-01
damped:  g(F)=  0.000E+00 g(S)=  0.000E+00 dE (1.order)= 0.000E+00
 bond charge predicted
       N       E                     dE             d eps       ncg     rms          rms(c)
DAV:   1    -0.354327516161E+02   -0.28880E-01   -0.15033E-01    96   0.359E+00    0.136E-01
DAV:   2    -0.354324776446E+02    0.27397E-03   -0.12733E-03   128   0.358E-01    0.684E-02
DAV:   3    -0.354324881066E+02   -0.10462E-04   -0.13704E-04    96   0.115E-01    0.380E-02
DAV:   4    -0.354325400437E+02   -0.51937E-04   -0.27752E-05    96   0.563E-02    0.615E-03
DAV:   5    -0.354325447457E+02   -0.47020E-05   -0.48368E-06    48   0.197E-02    0.317E-03
DAV:   6    -0.354325510025E+02   -0.62568E-05   -0.10927E-06    80   0.868E-03
  16 F= -.35432551E+02 E0= -.35432551E+02  d E =-.286737E-01
damped:  g(F)=  0.000E+00 g(S)=  0.000E+00 dE (1.order)= 0.000E+00
 bond charge predicted
       N       E                     dE             d eps       ncg     rms          rms(c)
DAV:   1    -0.354324584116E+02    0.86334E-04   -0.77574E-05    64   0.850E-02    0.220E-03
DAV:   2    -0.354324620130E+02   -0.36014E-05   -0.36510E-06    48   0.193E-02    0.140E-03
DAV:   3    -0.354324648991E+02   -0.28861E-05   -0.55390E-07    64   0.624E-03    0.968E-04
DAV:   4    -0.354324690244E+02   -0.41253E-05   -0.27193E-07    64   0.356E-03    0.363E-04
DAV:   5    -0.354324715739E+02   -0.25496E-05   -0.15563E-07    48   0.216E-03    0.249E-04
DAV:   6    -0.354324762362E+02   -0.46623E-05   -0.25564E-07    80   0.215E-03
  17 F= -.35432476E+02 E0= -.35432476E+02  d E =0.747663E-04
damped:  g(F)=  0.000E+00 g(S)=  0.000E+00 dE (1.order)= 0.000E+00
 bond charge predicted
       N       E                     dE             d eps       ncg     rms          rms(c)
DAV:   1    -0.354322999296E+02    0.17164E-03   -0.31352E-04    96   0.167E-01    0.429E-03
DAV:   2    -0.354323006226E+02   -0.69305E-06   -0.32879E-06    52   0.159E-02    0.262E-03
DAV:   3    -0.354323013735E+02   -0.75085E-06   -0.46390E-07    60   0.656E-03    0.129E-03
DAV:   4    -0.354323022398E+02   -0.86625E-06   -0.16643E-07    52   0.354E-03    0.351E-04
DAV:   5    -0.354323025756E+02   -0.33590E-06   -0.50604E-08    48   0.164E-03    0.191E-04
DAV:   6    -0.354323030239E+02   -0.44824E-06   -0.27910E-08    64   0.901E-04
  18 F= -.35432303E+02 E0= -.35432303E+02  d E =0.173212E-03
damped:  g(F)=  0.000E+00 g(S)=  0.000E+00 dE (1.order)= 0.000E+00
 bond charge predicted
       N       E                     dE             d eps       ncg     rms          rms(c)
DAV:   1    -0.354320703268E+02    0.23225E-03   -0.66835E-04    96   0.244E-01    0.628E-03
DAV:   2    -0.354320703506E+02   -0.23786E-07   -0.68615E-06    64   0.230E-02    0.386E-03
DAV:   3    -0.354320707235E+02   -0.37286E-06   -0.91855E-07    48   0.938E-03    0.189E-03
DAV:   4    -0.354320711034E+02   -0.37988E-06   -0.29215E-07    60   0.497E-03    0.520E-04
DAV:   5    -0.354320712018E+02   -0.98491E-07   -0.74269E-08    48   0.222E-03    0.281E-04
DAV:   6    -0.354320713356E+02   -0.13376E-06   -0.28868E-08    48   0.113E-03
  19 F= -.35432071E+02 E0= -.35432071E+02  d E =0.231688E-03
damped:  g(F)=  0.000E+00 g(S)=  0.000E+00 dE (1.order)= 0.000E+00
 bond charge predicted
       N       E                     dE             d eps       ncg     rms          rms(c)
DAV:   1    -0.354318232469E+02    0.24795E-03   -0.11068E-03    96   0.313E-01    0.805E-03
DAV:   2    -0.354318229719E+02    0.27497E-06   -0.11186E-05    64   0.293E-02    0.493E-03
DAV:   3    -0.354318233714E+02   -0.39954E-06   -0.14871E-06    64   0.119E-02    0.241E-03
DAV:   4    -0.354318237187E+02   -0.34723E-06   -0.46139E-07    64   0.626E-03    0.690E-04
DAV:   5    -0.354318237682E+02   -0.49592E-07   -0.11686E-07    48   0.279E-03    0.371E-04
DAV:   6    -0.354318238366E+02   -0.68382E-07   -0.44939E-08    64   0.141E-03
  20 F= -.35431824E+02 E0= -.35431824E+02  d E =0.247499E-03
damped:  g(F)=  0.000E+00 g(S)=  0.000E+00 dE (1.order)= 0.000E+00
 bond charge predicted
       N       E                     dE             d eps       ncg     rms          rms(c)
DAV:   1    -0.354316237175E+02    0.20005E-03   -0.15856E-03    96   0.373E-01    0.959E-03
DAV:   2    -0.354316231855E+02    0.53197E-06   -0.15792E-05    64   0.348E-02    0.585E-03
DAV:   3    -0.354316237404E+02   -0.55483E-06   -0.20971E-06    64   0.141E-02    0.282E-03
DAV:   4    -0.354316241705E+02   -0.43018E-06   -0.63801E-07    48   0.732E-03    0.866E-04
DAV:   5    -0.354316242234E+02   -0.52838E-07   -0.16474E-07    48   0.328E-03    0.462E-04
DAV:   6    -0.354316242944E+02   -0.71017E-07   -0.64608E-08    48   0.167E-03
  21 F= -.35431624E+02 E0= -.35431624E+02  d E =0.199542E-03
damped:  g(F)=  0.000E+00 g(S)=  0.000E+00 dE (1.order)= 0.000E+00
 bond charge predicted
       N       E                     dE             d eps       ncg     rms          rms(c)
DAV:   1    -0.354315797638E+02    0.44460E-04   -0.20698E-03    96   0.423E-01    0.109E-02
DAV:   2    -0.354315790440E+02    0.71976E-06   -0.20349E-05    64   0.393E-02    0.664E-03
DAV:   3    -0.354315798596E+02   -0.81561E-06   -0.27066E-06    64   0.159E-02    0.303E-03
DAV:   4    -0.354315803819E+02   -0.52232E-06   -0.79887E-07    48   0.814E-03    0.104E-03
DAV:   5    -0.354315804488E+02   -0.66898E-07   -0.20438E-07    48   0.367E-03    0.557E-04
DAV:   6    -0.354315805369E+02   -0.88031E-07   -0.78851E-08    48   0.190E-03
  22 F= -.35431581E+02 E0= -.35431581E+02  d E =0.437575E-04
damped:  g(F)=  0.000E+00 g(S)=  0.000E+00 dE (1.order)= 0.000E+00
 bond charge predicted
       N       E                     dE             d eps       ncg     rms          rms(c)
DAV:   1    -0.354319361932E+02   -0.35574E-03   -0.31182E-03    96   0.513E-01    0.132E-02
DAV:   2    -0.354319350036E+02    0.11896E-05   -0.30234E-05    64   0.473E-02    0.814E-03
DAV:   3    -0.354319367019E+02   -0.16983E-05   -0.41167E-06    64   0.197E-02    0.302E-03
DAV:   4    -0.354319372740E+02   -0.57202E-06   -0.11241E-06    48   0.951E-03    0.128E-03
DAV:   5    -0.354319373460E+02   -0.72021E-07   -0.27235E-07    48   0.431E-03    0.714E-04
DAV:   6    -0.354319374566E+02   -0.11058E-06   -0.10602E-07    48   0.234E-03
  23 F= -.35431937E+02 E0= -.35431937E+02  d E =-.356920E-03
damped:  g(F)=  0.000E+00 g(S)=  0.000E+00 dE (1.order)= 0.000E+00
 bond charge predicted
       N       E                     dE             d eps       ncg     rms          rms(c)
DAV:   1    -0.354331394448E+02   -0.12021E-02   -0.42781E-03    96   0.592E-01    0.157E-02
DAV:   2    -0.354331372284E+02    0.22164E-05   -0.40820E-05    64   0.538E-02    0.967E-03
DAV:   3    -0.354331406374E+02   -0.34090E-05   -0.60772E-06    64   0.239E-02    0.217E-03
DAV:   4    -0.354331408998E+02   -0.26236E-06   -0.14171E-06    48   0.103E-02    0.126E-03
DAV:   5    -0.354331409924E+02   -0.92621E-07   -0.33116E-07    48   0.461E-03    0.693E-04
DAV:   6    -0.354331410963E+02   -0.10387E-06   -0.13593E-07    52   0.270E-03
  24 F= -.35433141E+02 E0= -.35433141E+02  d E =-.120364E-02
damped:  g(F)=  0.000E+00 g(S)=  0.000E+00 dE (1.order)= 0.000E+00
 bond charge predicted
       N       E                     dE             d eps       ncg     rms          rms(c)
DAV:   1    -0.354332652447E+02   -0.12425E-03   -0.27062E-06    48   0.159E-02    0.626E-04
DAV:   2    -0.354332653008E+02   -0.56110E-07   -0.12496E-07    48   0.333E-03    0.276E-04
DAV:   3    -0.354332653563E+02   -0.55502E-07   -0.36955E-08    48   0.115E-03    0.158E-04
DAV:   4    -0.354332654355E+02   -0.79195E-07   -0.24571E-08    48   0.578E-04    0.550E-05
DAV:   5    -0.354332655077E+02   -0.72282E-07   -0.21513E-08    48   0.313E-04    0.309E-05
DAV:   6    -0.354332656031E+02   -0.95366E-07   -0.21409E-08    80   0.232E-04
  25 F= -.35433266E+02 E0= -.35433266E+02  d E =-.124507E-03
damped:  g(F)=  0.000E+00 g(S)=  0.000E+00 dE (1.order)= 0.000E+00
 bond charge predicted
       N       E                     dE             d eps       ncg     rms          rms(c)
DAV:   1    -0.354335711226E+02   -0.30561E-03   -0.15845E-05    48   0.385E-02    0.145E-03
DAV:   2    -0.354335711482E+02   -0.25636E-07   -0.57263E-07    48   0.791E-03    0.660E-04
DAV:   3    -0.354335711883E+02   -0.40029E-07   -0.93131E-08    48   0.251E-03    0.373E-04
DAV:   4    -0.354335712249E+02   -0.36598E-07   -0.37566E-08    48   0.114E-03    0.110E-04
DAV:   5    -0.354335712476E+02   -0.22710E-07   -0.25304E-08    48   0.514E-04    0.523E-05
DAV:   6    -0.354335712698E+02   -0.22169E-07   -0.22308E-08    48   0.285E-04
  26 F= -.35433571E+02 E0= -.35433571E+02  d E =-.305667E-03
damped:  g(F)=  0.000E+00 g(S)=  0.000E+00 dE (1.order)= 0.000E+00
 bond charge predicted
       N       E                     dE             d eps       ncg     rms          rms(c)
DAV:   1    -0.354341192731E+02   -0.54803E-03   -0.50624E-05    48   0.685E-02    0.256E-03
DAV:   2    -0.354341192848E+02   -0.11665E-07   -0.18071E-06    64   0.141E-02    0.118E-03
DAV:   3    -0.354341193418E+02   -0.56973E-07   -0.25643E-07    48   0.448E-03    0.663E-04
DAV:   4    -0.354341193684E+02   -0.26617E-07   -0.75694E-08    48   0.205E-03    0.196E-04
DAV:   5    -0.354341193731E+02   -0.47003E-08   -0.35095E-08    48   0.920E-04    0.934E-05
DAV:   6    -0.354341193790E+02   -0.59098E-08   -0.25016E-08    48   0.506E-04
  27 F= -.35434119E+02 E0= -.35434119E+02  d E =-.548109E-03
damped:  g(F)=  0.000E+00 g(S)=  0.000E+00 dE (1.order)= 0.000E+00
 bond charge predicted
       N       E                     dE             d eps       ncg     rms          rms(c)
DAV:   1    -0.354349698862E+02   -0.85051E-03   -0.12585E-04    96   0.106E-01    0.388E-03
DAV:   2    -0.354349695656E+02    0.32065E-06   -0.92583E-07    64   0.968E-03    0.192E-03
DAV:   3    -0.354349696189E+02   -0.53326E-07   -0.17766E-07    48   0.379E-03    0.988E-04
DAV:   4    -0.354349696638E+02   -0.44915E-07   -0.72195E-08    48   0.204E-03    0.209E-04
DAV:   5    -0.354349696654E+02   -0.16241E-08   -0.30418E-08    48   0.877E-04    0.104E-04
DAV:   6    -0.354349696743E+02   -0.88243E-08   -0.23277E-08    48   0.455E-04
  28 F= -.35434970E+02 E0= -.35434970E+02  d E =-.850295E-03
damped:  g(F)=  0.000E+00 g(S)=  0.000E+00 dE (1.order)= 0.000E+00
 bond charge predicted
       N       E                     dE             d eps       ncg     rms          rms(c)
DAV:   1    -0.354361153837E+02   -0.11457E-02   -0.22832E-04    96   0.142E-01    0.521E-03
DAV:   2    -0.354361148286E+02    0.55506E-06   -0.16634E-06    64   0.130E-02    0.259E-03
DAV:   3    -0.354361149155E+02   -0.86836E-07   -0.30200E-07    48   0.509E-03    0.133E-03
DAV:   4    -0.354361149960E+02   -0.80560E-07   -0.11114E-07    48   0.274E-03    0.280E-04
DAV:   5    -0.354361150014E+02   -0.53308E-08   -0.37053E-08    48   0.117E-03    0.138E-04
DAV:   6    -0.354361150173E+02   -0.15929E-07   -0.24365E-08    48   0.606E-04
  29 F= -.35436115E+02 E0= -.35436115E+02  d E =-.114534E-02
damped:  g(F)=  0.000E+00 g(S)=  0.000E+00 dE (1.order)= 0.000E+00
 bond charge predicted
       N       E                     dE             d eps       ncg     rms          rms(c)
DAV:   1    -0.354375458759E+02   -0.14309E-02   -0.35637E-04    96   0.177E-01    0.651E-03
DAV:   2    -0.354375450480E+02    0.82791E-06   -0.26017E-06    64   0.163E-02    0.323E-03
DAV:   3    -0.354375451707E+02   -0.12272E-06   -0.46278E-07    56   0.638E-03    0.167E-03
DAV:   4    -0.354375453022E+02   -0.13145E-06   -0.16172E-07    48   0.343E-03    0.349E-04
DAV:   5    -0.354375453138E+02   -0.11643E-07   -0.45976E-08    48   0.147E-03    0.172E-04
DAV:   6    -0.354375453401E+02   -0.26337E-07   -0.26164E-08    48   0.754E-04
  30 F= -.35437545E+02 E0= -.35437545E+02  d E =-.143032E-02
damped:  g(F)=  0.000E+00 g(S)=  0.000E+00 dE (1.order)= 0.000E+00
 bond charge predicted
       N       E                     dE             d eps       ncg     rms          rms(c)
DAV:   1    -0.354394487132E+02   -0.19034E-02   -0.63142E-04    96   0.236E-01    0.869E-03
DAV:   2    -0.354394473056E+02    0.14076E-05   -0.46264E-06    64   0.219E-02    0.431E-03
DAV:   3    -0.354394474933E+02   -0.18772E-06   -0.81323E-07    64   0.854E-03    0.223E-03
DAV:   4    -0.354394477326E+02   -0.23931E-06   -0.27410E-07    48   0.458E-03    0.461E-04
DAV:   5    -0.354394477523E+02   -0.19626E-07   -0.67587E-08    48   0.195E-03    0.230E-04
DAV:   6    -0.354394477915E+02   -0.39216E-07   -0.32149E-08    48   0.993E-04
  31 F= -.35439448E+02 E0= -.35439448E+02  d E =-.190245E-02
damped:  g(F)=  0.000E+00 g(S)=  0.000E+00 dE (1.order)= 0.000E+00
 bond charge predicted
       N       E                     dE             d eps       ncg     rms          rms(c)
DAV:   1    -0.354419158381E+02   -0.24681E-02   -0.10644E-03    96   0.306E-01    0.113E-02
DAV:   2    -0.354419135000E+02    0.23380E-05   -0.78628E-06    64   0.287E-02    0.561E-03
DAV:   3    -0.354419137889E+02   -0.28883E-06   -0.13792E-06    64   0.112E-02    0.292E-03
DAV:   4    -0.354419142046E+02   -0.41576E-06   -0.45671E-07    48   0.598E-03    0.597E-04
DAV:   5    -0.354419142400E+02   -0.35395E-07   -0.10381E-07    48   0.255E-03    0.301E-04
DAV:   6    -0.354419143020E+02   -0.61939E-07   -0.42850E-08    48   0.128E-03
  32 F= -.35441914E+02 E0= -.35441914E+02  d E =-.246651E-02
damped:  g(F)=  0.000E+00 g(S)=  0.000E+00 dE (1.order)= 0.000E+00
 bond charge predicted
       N       E                     dE             d eps       ncg     rms          rms(c)
DAV:   1    -0.354450448091E+02   -0.31306E-02   -0.17210E-03    96   0.388E-01    0.145E-02
DAV:   2    -0.354450410540E+02    0.37550E-05   -0.12871E-05    64   0.368E-02    0.715E-03
DAV:   3    -0.354450414958E+02   -0.44175E-06   -0.22624E-06    64   0.144E-02    0.374E-03
DAV:   4    -0.354450421845E+02   -0.68876E-06   -0.74400E-07    48   0.769E-03    0.764E-04
DAV:   5    -0.354450422482E+02   -0.63619E-07   -0.16223E-07    48   0.327E-03    0.388E-04
DAV:   6    -0.354450423457E+02   -0.97581E-07   -0.60402E-08    48   0.162E-03
  33 F= -.35445042E+02 E0= -.35445042E+02  d E =-.312804E-02
damped:  g(F)=  0.000E+00 g(S)=  0.000E+00 dE (1.order)= 0.000E+00
 bond charge predicted
       N       E                     dE             d eps       ncg     rms          rms(c)
DAV:   1    -0.354489336911E+02   -0.38914E-02   -0.26827E-03    96   0.484E-01    0.181E-02
DAV:   2    -0.354489278837E+02    0.58074E-05   -0.20329E-05    64   0.463E-02    0.894E-03
DAV:   3    -0.354489285675E+02   -0.68376E-06   -0.35719E-06    64   0.180E-02    0.468E-03
DAV:   4    -0.354489296552E+02   -0.10877E-05   -0.11659E-06    48   0.967E-03    0.961E-04
DAV:   5    -0.354489297652E+02   -0.11004E-06   -0.25029E-07    48   0.410E-03    0.489E-04
DAV:   6    -0.354489299164E+02   -0.15120E-06   -0.87312E-08    48   0.202E-03
  34 F= -.35448930E+02 E0= -.35448930E+02  d E =-.388757E-02
damped:  g(F)=  0.000E+00 g(S)=  0.000E+00 dE (1.order)= 0.000E+00
 bond charge predicted
       N       E                     dE             d eps       ncg     rms          rms(c)
DAV:   1    -0.354536719023E+02   -0.47421E-02   -0.40338E-03    96   0.592E-01    0.221E-02
DAV:   2    -0.354536632847E+02    0.86176E-05   -0.30906E-05    64   0.567E-02    0.110E-02
DAV:   3    -0.354536643866E+02   -0.11019E-05   -0.54041E-06    64   0.221E-02    0.572E-03
DAV:   4    -0.354536660475E+02   -0.16609E-05   -0.17365E-06    56   0.118E-02    0.118E-03
DAV:   5    -0.354536662258E+02   -0.17829E-06   -0.37415E-07    48   0.501E-03    0.597E-04
DAV:   6    -0.354536664546E+02   -0.22889E-06   -0.12674E-07    48   0.246E-03
  35 F= -.35453666E+02 E0= -.35453666E+02  d E =-.473654E-02
damped:  g(F)=  0.000E+00 g(S)=  0.000E+00 dE (1.order)= 0.000E+00
 bond charge predicted
       N       E                     dE             d eps       ncg     rms          rms(c)
DAV:   1    -0.354593190018E+02   -0.56528E-02   -0.58412E-03    96   0.709E-01    0.262E-02
DAV:   2    -0.354593069643E+02    0.12038E-04   -0.45085E-05    64   0.676E-02    0.131E-02
DAV:   3    -0.354593087491E+02   -0.17848E-05   -0.77899E-06    64   0.264E-02    0.677E-03
DAV:   4    -0.354593111564E+02   -0.24073E-05   -0.24308E-06    64   0.141E-02    0.142E-03
DAV:   5    -0.354593114282E+02   -0.27184E-06   -0.53421E-07    48   0.591E-03    0.701E-04
DAV:   6    -0.354593117529E+02   -0.32470E-06   -0.18101E-07    48   0.294E-03
  36 F= -.35459312E+02 E0= -.35459312E+02  d E =-.564530E-02
damped:  g(F)=  0.000E+00 g(S)=  0.000E+00 dE (1.order)= 0.000E+00
 bond charge predicted
       N       E                     dE             d eps       ncg     rms          rms(c)
DAV:   1    -0.354658605657E+02   -0.65491E-02   -0.80914E-03    96   0.830E-01    0.305E-02
DAV:   2    -0.354658446733E+02    0.15892E-04   -0.62929E-05    64   0.784E-02    0.154E-02
DAV:   3    -0.354658474780E+02   -0.28047E-05   -0.10687E-05    64   0.306E-02    0.776E-03
DAV:   4    -0.354658508372E+02   -0.33593E-05   -0.31982E-06    64   0.162E-02    0.168E-03
DAV:   5    -0.354658512299E+02   -0.39269E-06   -0.72396E-07    48   0.675E-03    0.803E-04
DAV:   6    -0.354658516636E+02   -0.43364E-06   -0.24781E-07    48   0.342E-03
  37 F= -.35465852E+02 E0= -.35465852E+02  d E =-.653991E-02
damped:  g(F)=  0.000E+00 g(S)=  0.000E+00 dE (1.order)= 0.000E+00
 bond charge predicted
       N       E                     dE             d eps       ncg     rms          rms(c)
DAV:   1    -0.354731047803E+02   -0.72536E-02   -0.10460E-02    96   0.938E-01    0.343E-02
DAV:   2    -0.354730848195E+02    0.19961E-04   -0.82510E-05    64   0.888E-02    0.174E-02
DAV:   3    -0.354730888240E+02   -0.40045E-05   -0.13775E-05    64   0.346E-02    0.865E-03
DAV:   4    -0.354730933336E+02   -0.45096E-05   -0.39770E-06    64   0.180E-02    0.194E-03
DAV:   5    -0.354730938535E+02   -0.51995E-06   -0.91533E-07    48   0.747E-03    0.921E-04
DAV:   6    -0.354730943826E+02   -0.52909E-06   -0.31247E-07    48   0.380E-03
  38 F= -.35473094E+02 E0= -.35473094E+02  d E =-.724272E-02
damped:  g(F)=  0.000E+00 g(S)=  0.000E+00 dE (1.order)= 0.000E+00
 bond charge predicted
       N       E                     dE             d eps       ncg     rms          rms(c)
DAV:   1    -0.354804629775E+02   -0.73691E-02   -0.11771E-02    96   0.986E-01    0.357E-02
DAV:   2    -0.354804416147E+02    0.21363E-04   -0.96085E-05    72   0.940E-02    0.183E-02
DAV:   3    -0.354804466055E+02   -0.49908E-05   -0.15664E-05    64   0.365E-02    0.901E-03
DAV:   4    -0.354804518949E+02   -0.52894E-05   -0.43328E-06    64   0.189E-02    0.214E-03
DAV:   5    -0.354804525375E+02   -0.64253E-06   -0.10145E-06    48   0.773E-03    0.103E-03
DAV:   6    -0.354804531427E+02   -0.60519E-06   -0.34619E-07    48   0.396E-03
  39 F= -.35480453E+02 E0= -.35480453E+02  d E =-.735876E-02
damped:  g(F)=  0.000E+00 g(S)=  0.000E+00 dE (1.order)= 0.000E+00
 bond charge predicted
       N       E                     dE             d eps       ncg     rms          rms(c)
DAV:   1    -0.354803981698E+02    0.54368E-04   -0.90186E-07    48   0.891E-03    0.471E-04
DAV:   2    -0.354803986116E+02   -0.44181E-06   -0.90598E-08    48   0.242E-03    0.237E-04
DAV:   3    -0.354803990174E+02   -0.40580E-06   -0.35524E-08    48   0.109E-03    0.170E-04
DAV:   4    -0.354803996759E+02   -0.65858E-06   -0.32073E-08    48   0.736E-04    0.960E-05
DAV:   5    -0.354804004349E+02   -0.75900E-06   -0.37137E-08    64   0.677E-04    0.629E-05
DAV:   6    -0.354804011470E+02   -0.71209E-06   -0.37176E-08    64   0.717E-04
  40 F= -.35480401E+02 E0= -.35480401E+02  d E =0.519956E-04
damped:  g(F)=  0.000E+00 g(S)=  0.000E+00 dE (1.order)= 0.000E+00
 bond charge predicted
       N       E                     dE             d eps       ncg     rms          rms(c)
DAV:   1    -0.354803030721E+02    0.97363E-04   -0.29615E-06    80   0.167E-02    0.651E-04
DAV:   2    -0.354803031674E+02   -0.95313E-07   -0.14531E-07    48   0.382E-03    0.296E-04
DAV:   3    -0.354803032336E+02   -0.66240E-07   -0.29919E-08    48   0.132E-03    0.199E-04
DAV:   4    -0.354803033390E+02   -0.10539E-06   -0.16411E-08    48   0.666E-04    0.907E-05
DAV:   5    -0.354803034386E+02   -0.99537E-07   -0.13183E-08    48   0.377E-04    0.389E-05
DAV:   6    -0.354803035223E+02   -0.83709E-07   -0.12396E-08    68   0.219E-04
  41 F= -.35480304E+02 E0= -.35480304E+02  d E =0.976248E-04
damped:  g(F)=  0.000E+00 g(S)=  0.000E+00 dE (1.order)= 0.000E+00
 bond charge predicted
       N       E                     dE             d eps       ncg     rms          rms(c)
DAV:   1    -0.354801805553E+02    0.12288E-03   -0.58094E-06    48   0.234E-02    0.886E-04
DAV:   2    -0.354801805814E+02   -0.26107E-07   -0.26913E-07    48   0.533E-03    0.423E-04
DAV:   3    -0.354801806022E+02   -0.20825E-07   -0.46298E-08    48   0.179E-03    0.292E-04
DAV:   4    -0.354801806364E+02   -0.34242E-07   -0.21596E-08    48   0.856E-04    0.128E-04
DAV:   5    -0.354801806687E+02   -0.32239E-07   -0.16756E-08    48   0.437E-04    0.502E-05
DAV:   6    -0.354801806909E+02   -0.22207E-07   -0.16147E-08    48   0.214E-04
  42 F= -.35480181E+02 E0= -.35480181E+02  d E =0.122831E-03
damped:  g(F)=  0.000E+00 g(S)=  0.000E+00 dE (1.order)= 0.000E+00
 bond charge predicted
       N       E                     dE             d eps       ncg     rms          rms(c)
DAV:   1    -0.354800581142E+02    0.12255E-03   -0.90138E-06    48   0.292E-02    0.104E-03
DAV:   2    -0.354800581243E+02   -0.10142E-07   -0.42831E-07    48   0.674E-03    0.505E-04
DAV:   3    -0.354800581321E+02   -0.78143E-08   -0.70533E-08    48   0.221E-03    0.358E-04
DAV:   4    -0.354800581409E+02   -0.87769E-08   -0.31079E-08    48   0.104E-03    0.175E-04
DAV:   5    -0.354800581494E+02   -0.85399E-08   -0.23023E-08    48   0.535E-04    0.594E-05
DAV:   6    -0.354800581542E+02   -0.47694E-08   -0.21058E-08    48   0.262E-04
  43 F= -.35480058E+02 E0= -.35480058E+02  d E =0.122537E-03
damped:  g(F)=  0.000E+00 g(S)=  0.000E+00 dE (1.order)= 0.000E+00
 bond charge predicted
       N       E                     dE             d eps       ncg     rms          rms(c)
DAV:   1    -0.354799663943E+02    0.91755E-04   -0.13020E-05    48   0.351E-02    0.113E-03
DAV:   2    -0.354799664171E+02   -0.22765E-07   -0.62333E-07    48   0.817E-03    0.577E-04
DAV:   3    -0.354799664243E+02   -0.71693E-08   -0.95115E-08    48   0.261E-03    0.416E-04
DAV:   4    -0.354799664298E+02   -0.55090E-08   -0.38451E-08    48   0.122E-03    0.210E-04
DAV:   5    -0.354799664337E+02   -0.38724E-08   -0.26232E-08    48   0.619E-04    0.701E-05
DAV:   6    -0.354799664359E+02   -0.22555E-08   -0.22993E-08    48   0.313E-04
  44 F= -.35479966E+02 E0= -.35479966E+02  d E =0.917183E-04
damped:  g(F)=  0.000E+00 g(S)=  0.000E+00 dE (1.order)= 0.000E+00
 bond charge predicted
       N       E                     dE             d eps       ncg     rms          rms(c)
DAV:   1    -0.354799169116E+02    0.49522E-04   -0.18264E-05    48   0.414E-02    0.119E-03
DAV:   2    -0.354799169586E+02   -0.46945E-07   -0.85746E-07    48   0.964E-03    0.649E-04
DAV:   3    -0.354799169719E+02   -0.13282E-07   -0.12178E-07    48   0.301E-03    0.444E-04
DAV:   4    -0.354799169802E+02   -0.83689E-08   -0.45238E-08    48   0.140E-03    0.195E-04
DAV:   5    -0.354799169833E+02   -0.30657E-08   -0.27982E-08    48   0.677E-04    0.759E-05
DAV:   6    -0.354799169858E+02   -0.24795E-08   -0.23811E-08    48   0.358E-04
  45 F= -.35479917E+02 E0= -.35479917E+02  d E =0.494501E-04
damped:  g(F)=  0.000E+00 g(S)=  0.000E+00 dE (1.order)= 0.000E+00
 bond charge predicted
       N       E                     dE             d eps       ncg     rms          rms(c)
DAV:   1    -0.354799289248E+02   -0.11941E-04   -0.31702E-05    48   0.542E-02    0.143E-03
DAV:   2    -0.354799290174E+02   -0.92608E-07   -0.14381E-06    48   0.125E-02    0.838E-04
DAV:   3    -0.354799290505E+02   -0.33121E-07   -0.18517E-07    48   0.384E-03    0.462E-04
DAV:   4    -0.354799290632E+02   -0.12712E-07   -0.60215E-08    48   0.177E-03    0.159E-04
DAV:   5    -0.354799290655E+02   -0.22724E-08   -0.31996E-08    48   0.834E-04    0.867E-05
DAV:   6    -0.354799290677E+02   -0.22217E-08   -0.25037E-08    48   0.458E-04
  46 F= -.35479929E+02 E0= -.35479929E+02  d E =-.120820E-04
damped:  g(F)=  0.000E+00 g(S)=  0.000E+00 dE (1.order)= 0.000E+00
 bond charge predicted
       N       E                     dE             d eps       ncg     rms          rms(c)
DAV:   1    -0.354800450643E+02   -0.11600E-03   -0.55881E-05    48   0.713E-02    0.189E-03
DAV:   2    -0.354800452228E+02   -0.15850E-06   -0.24663E-06    48   0.164E-02    0.113E-03
DAV:   3    -0.354800452944E+02   -0.71538E-07   -0.29757E-07    48   0.498E-03    0.489E-04
DAV:   4    -0.354800453107E+02   -0.16370E-07   -0.85905E-08    48   0.223E-03    0.164E-04
DAV:   5    -0.354800453124E+02   -0.16530E-08   -0.39334E-08    48   0.106E-03    0.983E-05
DAV:   6    -0.354800453139E+02   -0.15086E-08   -0.27166E-08    48   0.589E-04
  47 F= -.35480045E+02 E0= -.35480045E+02  d E =-.116246E-03
damped:  g(F)=  0.000E+00 g(S)=  0.000E+00 dE (1.order)= 0.000E+00
 bond charge predicted
       N       E                     dE             d eps       ncg     rms          rms(c)
DAV:   1    -0.354803279924E+02   -0.28268E-03   -0.98235E-05    48   0.937E-02    0.267E-03
DAV:   2    -0.354803282419E+02   -0.24954E-06   -0.42216E-06    48   0.214E-02    0.152E-03
DAV:   3    -0.354803283662E+02   -0.12424E-06   -0.50509E-07    48   0.652E-03    0.706E-04
DAV:   4    -0.354803283991E+02   -0.32890E-07   -0.13433E-07    48   0.292E-03    0.254E-04
DAV:   5    -0.354803284011E+02   -0.19795E-08   -0.53775E-08    48   0.140E-03    0.141E-04
DAV:   6    -0.354803284018E+02   -0.71100E-09   -0.31322E-08    48   0.771E-04
  48 F= -.35480328E+02 E0= -.35480328E+02  d E =-.283088E-03
damped:  g(F)=  0.000E+00 g(S)=  0.000E+00 dE (1.order)= 0.000E+00
 bond charge predicted
       N       E                     dE             d eps       ncg     rms          rms(c)
DAV:   1    -0.354808623896E+02   -0.53399E-03   -0.17910E-04    96   0.123E-01    0.370E-03
DAV:   2    -0.354808622082E+02    0.18136E-06   -0.16871E-06    48   0.113E-02    0.214E-03
DAV:   3    -0.354808623420E+02   -0.13379E-06   -0.27435E-07    48   0.453E-03    0.759E-04
DAV:   4    -0.354808623782E+02   -0.36171E-07   -0.79460E-08    48   0.215E-03    0.284E-04
DAV:   5    -0.354808623807E+02   -0.25561E-08   -0.36248E-08    48   0.961E-04    0.140E-04
DAV:   6    -0.354808623842E+02   -0.34609E-08   -0.25929E-08    48   0.530E-04
  49 F= -.35480862E+02 E0= -.35480862E+02  d E =-.533982E-03
damped:  g(F)=  0.000E+00 g(S)=  0.000E+00 dE (1.order)= 0.000E+00
 bond charge predicted
       N       E                     dE             d eps       ncg     rms          rms(c)
DAV:   1    -0.354817540650E+02   -0.89168E-03   -0.31944E-04    96   0.163E-01    0.520E-03
DAV:   2    -0.354817536695E+02    0.39552E-06   -0.28530E-06    64   0.148E-02    0.291E-03
DAV:   3    -0.354817538859E+02   -0.21642E-06   -0.45897E-07    48   0.589E-03    0.108E-03
DAV:   4    -0.354817539573E+02   -0.71406E-07   -0.11996E-07    48   0.284E-03    0.347E-04
DAV:   5    -0.354817539638E+02   -0.65131E-08   -0.46251E-08    48   0.123E-03    0.169E-04
DAV:   6    -0.354817539724E+02   -0.86197E-08   -0.28377E-08    48   0.690E-04
  50 F= -.35481754E+02 E0= -.35481754E+02  d E =-.891588E-03
damped:  g(F)=  0.000E+00 g(S)=  0.000E+00 dE (1.order)= 0.000E+00
 bond charge predicted
       N       E                     dE             d eps       ncg     rms          rms(c)
DAV:   1    -0.354831390119E+02   -0.13850E-02   -0.57978E-04    96   0.219E-01    0.731E-03
DAV:   2    -0.354831381919E+02    0.82001E-06   -0.49513E-06    64   0.200E-02    0.398E-03
DAV:   3    -0.354831385125E+02   -0.32065E-06   -0.80048E-07    56   0.788E-03    0.166E-03
DAV:   4    -0.354831386800E+02   -0.16752E-06   -0.20574E-07    48   0.395E-03    0.454E-04
DAV:   5    -0.354831386929E+02   -0.12860E-07   -0.66693E-08    48   0.166E-03    0.221E-04
DAV:   6    -0.354831387108E+02   -0.17852E-07   -0.33683E-08    48   0.920E-04
  51 F= -.35483139E+02 E0= -.35483139E+02  d E =-.138474E-02
damped:  g(F)=  0.000E+00 g(S)=  0.000E+00 dE (1.order)= 0.000E+00
 bond charge predicted
       N       E                     dE             d eps       ncg     rms          rms(c)
DAV:   1    -0.354851870064E+02   -0.20483E-02   -0.10555E-03    96   0.296E-01    0.103E-02
DAV:   2    -0.354851853415E+02    0.16649E-05   -0.86643E-06    64   0.275E-02    0.542E-03
DAV:   3    -0.354851857843E+02   -0.44279E-06   -0.14163E-06    64   0.107E-02    0.254E-03
DAV:   4    -0.354851861617E+02   -0.37746E-06   -0.38027E-07    48   0.552E-03    0.603E-04
DAV:   5    -0.354851861887E+02   -0.26916E-07   -0.10557E-07    48   0.227E-03    0.294E-04
DAV:   6    -0.354851862242E+02   -0.35548E-07   -0.44617E-08    48   0.121E-03
  52 F= -.35485186E+02 E0= -.35485186E+02  d E =-.204751E-02
damped:  g(F)=  0.000E+00 g(S)=  0.000E+00 dE (1.order)= 0.000E+00
 bond charge predicted
       N       E                     dE             d eps       ncg     rms          rms(c)
DAV:   1    -0.354881018170E+02   -0.29156E-02   -0.19054E-03    96   0.399E-01    0.142E-02
DAV:   2    -0.354880985044E+02    0.33126E-05   -0.15147E-05    64   0.377E-02    0.734E-03
DAV:   3    -0.354880991560E+02   -0.65157E-06   -0.25174E-06    64   0.145E-02    0.365E-03
DAV:   4    -0.354880998873E+02   -0.73138E-06   -0.71603E-07    48   0.761E-03    0.799E-04
DAV:   5    -0.354880999412E+02   -0.53836E-07   -0.17742E-07    48   0.313E-03    0.394E-04
DAV:   6    -0.354881000097E+02   -0.68502E-07   -0.65418E-08    48   0.160E-03
  53 F= -.35488100E+02 E0= -.35488100E+02  d E =-.291379E-02
damped:  g(F)=  0.000E+00 g(S)=  0.000E+00 dE (1.order)= 0.000E+00
 bond charge predicted
       N       E                     dE             d eps       ncg     rms          rms(c)
DAV:   1    -0.354921029602E+02   -0.40030E-02   -0.33370E-03    96   0.531E-01    0.191E-02
DAV:   2    -0.354920968622E+02    0.60980E-05   -0.25621E-05    64   0.499E-02    0.973E-03
DAV:   3    -0.354920979268E+02   -0.10646E-05   -0.43099E-06    64   0.192E-02    0.491E-03
DAV:   4    -0.354920991868E+02   -0.12600E-05   -0.12680E-06    48   0.101E-02    0.103E-03
DAV:   5    -0.354920992992E+02   -0.11243E-06   -0.29704E-07    48   0.418E-03    0.510E-04
DAV:   6    -0.354920994334E+02   -0.13423E-06   -0.10365E-07    48   0.212E-03
  54 F= -.35492099E+02 E0= -.35492099E+02  d E =-.399942E-02
damped:  g(F)=  0.000E+00 g(S)=  0.000E+00 dE (1.order)= 0.000E+00
 bond charge predicted
       N       E                     dE             d eps       ncg     rms          rms(c)
DAV:   1    -0.354971916300E+02   -0.50923E-02   -0.51786E-03    96   0.663E-01    0.240E-02
DAV:   2    -0.354971820575E+02    0.95725E-05   -0.38804E-05    64   0.619E-02    0.121E-02
DAV:   3    -0.354971836559E+02   -0.15984E-05   -0.65609E-06    64   0.238E-02    0.612E-03
DAV:   4    -0.354971855488E+02   -0.18929E-05   -0.19578E-06    64   0.125E-02    0.127E-03
DAV:   5    -0.354971857519E+02   -0.20309E-06   -0.44859E-07    48   0.521E-03    0.624E-04
DAV:   6    -0.354971859948E+02   -0.24291E-06   -0.15521E-07    48   0.266E-03
  55 F= -.35497186E+02 E0= -.35497186E+02  d E =-.508656E-02
damped:  g(F)=  0.000E+00 g(S)=  0.000E+00 dE (1.order)= 0.000E+00
 bond charge predicted
       N       E                     dE             d eps       ncg     rms          rms(c)
DAV:   1    -0.355032160805E+02   -0.60303E-02   -0.70977E-03    96   0.778E-01    0.283E-02
DAV:   2    -0.355032025166E+02    0.13564E-04   -0.52428E-05    64   0.730E-02    0.142E-02
DAV:   3    -0.355032044949E+02   -0.19783E-05   -0.89475E-06    64   0.280E-02    0.727E-03
DAV:   4    -0.355032071861E+02   -0.26912E-05   -0.27399E-06    64   0.147E-02    0.148E-03
DAV:   5    -0.355032074859E+02   -0.29983E-06   -0.60687E-07    48   0.616E-03    0.745E-04
DAV:   6    -0.355032078519E+02   -0.36603E-06   -0.20826E-07    48   0.311E-03
  56 F= -.35503208E+02 E0= -.35503208E+02  d E =-.602186E-02
damped:  g(F)=  0.000E+00 g(S)=  0.000E+00 dE (1.order)= 0.000E+00
 bond charge predicted
       N       E                     dE             d eps       ncg     rms          rms(c)
DAV:   1    -0.355095064053E+02   -0.62989E-02   -0.76670E-03    96   0.812E-01    0.288E-02
DAV:   2    -0.355094931826E+02    0.13223E-04   -0.58482E-05    64   0.738E-02    0.148E-02
DAV:   3    -0.355094956158E+02   -0.24332E-05   -0.10147E-05    64   0.292E-02    0.725E-03
DAV:   4    -0.355094981512E+02   -0.25354E-05   -0.31031E-06    48   0.156E-02    0.164E-03
DAV:   5    -0.355094985858E+02   -0.43458E-06   -0.74063E-07    48   0.670E-03    0.760E-04
DAV:   6    -0.355094990668E+02   -0.48098E-06   -0.26006E-07    48   0.353E-03
  57 F= -.35509499E+02 E0= -.35509499E+02  d E =-.629121E-02
damped:  g(F)=  0.000E+00 g(S)=  0.000E+00 dE (1.order)= 0.000E+00
 bond charge predicted
       N       E                     dE             d eps       ncg     rms          rms(c)
DAV:   1    -0.355093899425E+02    0.10864E-03   -0.14620E-05    48   0.360E-02    0.159E-03
DAV:   2    -0.355093903028E+02   -0.36032E-06   -0.70209E-07    48   0.842E-03    0.948E-04
DAV:   3    -0.355093906642E+02   -0.36135E-06   -0.80215E-08    48   0.264E-03    0.537E-04
DAV:   4    -0.355093912254E+02   -0.56125E-06   -0.61957E-08    48   0.197E-03    0.179E-04
DAV:   5    -0.355093914184E+02   -0.19293E-06   -0.23118E-08    48   0.953E-04    0.134E-04
DAV:   6    -0.355093918186E+02   -0.40020E-06   -0.21767E-08    48   0.571E-04
  58 F= -.35509392E+02 E0= -.35509392E+02  d E =0.107248E-03
damped:  g(F)=  0.000E+00 g(S)=  0.000E+00 dE (1.order)= 0.000E+00
 bond charge predicted
       N       E                     dE             d eps       ncg     rms          rms(c)
DAV:   1    -0.355092201731E+02    0.17125E-03   -0.26250E-05    48   0.487E-02    0.205E-03
DAV:   2    -0.355092203482E+02   -0.17508E-06   -0.12403E-06    48   0.113E-02    0.121E-03
DAV:   3    -0.355092204822E+02   -0.13399E-06   -0.13464E-07    48   0.353E-03    0.676E-04
DAV:   4    -0.355092206896E+02   -0.20741E-06   -0.77098E-08    48   0.242E-03    0.211E-04
DAV:   5    -0.355092207589E+02   -0.69255E-07   -0.23540E-08    48   0.106E-03    0.154E-04
DAV:   6    -0.355092208858E+02   -0.12697E-06   -0.14942E-08    68   0.532E-04
  59 F= -.35509221E+02 E0= -.35509221E+02  d E =0.170933E-03
damped:  g(F)=  0.000E+00 g(S)=  0.000E+00 dE (1.order)= 0.000E+00
 bond charge predicted
       N       E                     dE             d eps       ncg     rms          rms(c)
DAV:   1    -0.355092239303E+02   -0.31715E-05   -0.31350E-07    48   0.515E-03    0.221E-04
DAV:   2    -0.355092239732E+02   -0.42916E-07   -0.25372E-08    48   0.121E-03    0.128E-04
DAV:   3    -0.355092240095E+02   -0.36285E-07   -0.12609E-08    48   0.375E-04    0.798E-05
DAV:   4    -0.355092240870E+02   -0.77527E-07   -0.13129E-08    60   0.301E-04    0.267E-05
DAV:   5    -0.355092241086E+02   -0.21550E-07   -0.12449E-08    48   0.146E-04    0.187E-05
DAV:   6    -0.355092241604E+02   -0.51776E-07   -0.13298E-08    48   0.898E-05
  60 F= -.35509224E+02 E0= -.35509224E+02  d E =-.327454E-05
damped:  g(F)=  0.000E+00 g(S)=  0.000E+00 dE (1.order)= 0.000E+00
 bond charge predicted
       N       E                     dE             d eps       ncg     rms          rms(c)
DAV:   1    -0.355092522933E+02   -0.28185E-04   -0.16152E-06    48   0.119E-02    0.445E-04
DAV:   2    -0.355092523065E+02   -0.13175E-07   -0.90068E-08    48   0.275E-03    0.272E-04
DAV:   3    -0.355092523175E+02   -0.10973E-07   -0.22077E-08    48   0.845E-04    0.165E-04
DAV:   4    -0.355092523380E+02   -0.20494E-07   -0.19816E-08    48   0.605E-04    0.554E-05
DAV:   5    -0.355092523451E+02   -0.71672E-08   -0.16968E-08    48   0.268E-04    0.408E-05
DAV:   6    -0.355092523581E+02   -0.13012E-07   -0.17291E-08    48   0.130E-04
  61 F= -.35509252E+02 E0= -.35509252E+02  d E =-.281978E-04
damped:  g(F)=  0.000E+00 g(S)=  0.000E+00 dE (1.order)= 0.000E+00
 bond charge predicted
       N       E                     dE             d eps       ncg     rms          rms(c)
DAV:   1    -0.355093104916E+02   -0.58147E-04   -0.36560E-06    48   0.180E-02    0.621E-04
DAV:   2    -0.355093104961E+02   -0.44438E-08   -0.18665E-07    48   0.410E-03    0.388E-04
DAV:   3    -0.355093104965E+02   -0.42428E-09   -0.35010E-08    48   0.126E-03    0.223E-04
DAV:   4    -0.355093105000E+02   -0.35297E-08   -0.25912E-08    48   0.810E-04    0.792E-05
DAV:   5    -0.355093105026E+02   -0.25786E-08   -0.20250E-08    48   0.360E-04    0.573E-05
DAV:   6    -0.355093105057E+02   -0.30348E-08   -0.19731E-08    48   0.193E-04
  62 F= -.35509311E+02 E0= -.35509311E+02  d E =-.581475E-04
damped:  g(F)=  0.000E+00 g(S)=  0.000E+00 dE (1.order)= 0.000E+00
 bond charge predicted
       N       E                     dE             d eps       ncg     rms          rms(c)
DAV:   1    -0.355094052446E+02   -0.94742E-04   -0.60495E-06    48   0.233E-02    0.745E-04
DAV:   2    -0.355094052523E+02   -0.77146E-08   -0.28939E-07    48   0.519E-03    0.462E-04
DAV:   3    -0.355094052516E+02    0.73169E-09   -0.48257E-08    48   0.162E-03    0.234E-04
DAV:   4    -0.355094052527E+02   -0.11123E-08   -0.28871E-08    48   0.880E-04    0.988E-05
DAV:   5    -0.355094052538E+02   -0.11312E-08   -0.21654E-08    48   0.394E-04    0.658E-05
DAV:   6    -0.355094052549E+02   -0.10725E-08   -0.20609E-08    48   0.234E-04
  63 F= -.35509405E+02 E0= -.35509405E+02  d E =-.947492E-04
damped:  g(F)=  0.000E+00 g(S)=  0.000E+00 dE (1.order)= 0.000E+00
 bond charge predicted
       N       E                     dE             d eps       ncg     rms          rms(c)
DAV:   1    -0.355095442275E+02   -0.13897E-03   -0.87676E-06    48   0.283E-02    0.856E-04
DAV:   2    -0.355095442421E+02   -0.14599E-07   -0.38947E-07    48   0.610E-03    0.505E-04
DAV:   3    -0.355095442453E+02   -0.32342E-08   -0.62585E-08    48   0.192E-03    0.212E-04
DAV:   4    -0.355095442467E+02   -0.13717E-08   -0.30755E-08    48   0.909E-04    0.106E-04
DAV:   5    -0.355095442472E+02   -0.53501E-09   -0.22478E-08    48   0.422E-04    0.579E-05
DAV:   6    -0.355095442480E+02   -0.77125E-09   -0.20893E-08    48   0.239E-04
  64 F= -.35509544E+02 E0= -.35509544E+02  d E =-.138993E-03
damped:  g(F)=  0.000E+00 g(S)=  0.000E+00 dE (1.order)= 0.000E+00
 bond charge predicted
       N       E                     dE             d eps       ncg     rms          rms(c)
DAV:   1    -0.355097358752E+02   -0.19163E-03   -0.12436E-05    48   0.338E-02    0.102E-03
DAV:   2    -0.355097358965E+02   -0.21331E-07   -0.50933E-07    48   0.710E-03    0.549E-04
DAV:   3    -0.355097359066E+02   -0.10151E-07   -0.81157E-08    48   0.223E-03    0.262E-04
DAV:   4    -0.355097359082E+02   -0.15539E-08   -0.34670E-08    48   0.105E-03    0.109E-04
DAV:   5    -0.355097359088E+02   -0.59208E-09   -0.23970E-08    48   0.494E-04    0.572E-05
DAV:   6    -0.355097359091E+02   -0.35539E-09   -0.21058E-08    48   0.282E-04
  65 F= -.35509736E+02 E0= -.35509736E+02  d E =-.191661E-03
damped:  g(F)=  0.000E+00 g(S)=  0.000E+00 dE (1.order)= 0.000E+00
 bond charge predicted
       N       E                     dE             d eps       ncg     rms          rms(c)
DAV:   1    -0.355100218963E+02   -0.28599E-03   -0.22893E-05    48   0.460E-02    0.146E-03
DAV:   2    -0.355100219306E+02   -0.34302E-07   -0.87171E-07    48   0.951E-03    0.717E-04
DAV:   3    -0.355100219519E+02   -0.21228E-07   -0.13280E-07    48   0.301E-03    0.409E-04
DAV:   4    -0.355100219578E+02   -0.58940E-08   -0.46420E-08    48   0.139E-03    0.140E-04
DAV:   5    -0.355100219580E+02   -0.20987E-09   -0.27053E-08    48   0.649E-04    0.623E-05
DAV:   6    -0.355100219584E+02   -0.40518E-09   -0.21760E-08    48   0.362E-04
  66 F= -.35510022E+02 E0= -.35510022E+02  d E =-.286049E-03
damped:  g(F)=  0.000E+00 g(S)=  0.000E+00 dE (1.order)= 0.000E+00
 bond charge predicted
       N       E                     dE             d eps       ncg     rms          rms(c)
DAV:   1    -0.355104422938E+02   -0.42034E-03   -0.44544E-05    48   0.641E-02    0.215E-03
DAV:   2    -0.355104423440E+02   -0.50220E-07   -0.16408E-06    48   0.133E-02    0.101E-03
DAV:   3    -0.355104423838E+02   -0.39749E-07   -0.23871E-07    48   0.424E-03    0.609E-04
DAV:   4    -0.355104423993E+02   -0.15574E-07   -0.70356E-08    48   0.191E-03    0.194E-04
DAV:   5    -0.355104423995E+02   -0.12756E-09   -0.33350E-08    48   0.885E-04    0.785E-05
DAV:   6    -0.355104424001E+02   -0.59185E-09   -0.23705E-08    48   0.487E-04
  67 F= -.35510442E+02 E0= -.35510442E+02  d E =-.420442E-03
damped:  g(F)=  0.000E+00 g(S)=  0.000E+00 dE (1.order)= 0.000E+00
 bond charge predicted
       N       E                     dE             d eps       ncg     rms          rms(c)
DAV:   1    -0.355110236245E+02   -0.58123E-03   -0.82647E-05    48   0.873E-02    0.305E-03
DAV:   2    -0.355110236946E+02   -0.70098E-07   -0.30261E-06    64   0.182E-02    0.141E-03
DAV:   3    -0.355110237639E+02   -0.69355E-07   -0.42680E-07    48   0.584E-03    0.862E-04
DAV:   4    -0.355110237945E+02   -0.30582E-07   -0.11341E-07    48   0.262E-03    0.278E-04
DAV:   5    -0.355110237960E+02   -0.14459E-08   -0.45353E-08    48   0.122E-03    0.107E-04
DAV:   6    -0.355110237980E+02   -0.20023E-08   -0.27337E-08    48   0.659E-04
  68 F= -.35511024E+02 E0= -.35511024E+02  d E =-.581398E-03
damped:  g(F)=  0.000E+00 g(S)=  0.000E+00 dE (1.order)= 0.000E+00
 bond charge predicted
       N       E                     dE             d eps       ncg     rms          rms(c)
DAV:   1    -0.355117954961E+02   -0.77170E-03   -0.15001E-04    96   0.116E-01    0.406E-03
DAV:   2    -0.355117951724E+02    0.32371E-06   -0.11072E-06    64   0.112E-02    0.201E-03
DAV:   3    -0.355117952139E+02   -0.41470E-07   -0.21881E-07    48   0.420E-03    0.110E-03
DAV:   4    -0.355117952678E+02   -0.53943E-07   -0.90272E-08    48   0.232E-03    0.194E-04
DAV:   5    -0.355117952684E+02   -0.55297E-09   -0.34816E-08    48   0.104E-03    0.108E-04
DAV:   6    -0.355117952771E+02   -0.86911E-08   -0.23622E-08    48   0.487E-04
  69 F= -.35511795E+02 E0= -.35511795E+02  d E =-.771479E-03
damped:  g(F)=  0.000E+00 g(S)=  0.000E+00 dE (1.order)= 0.000E+00
 bond charge predicted
       N       E                     dE             d eps       ncg     rms          rms(c)
DAV:   1    -0.355127866626E+02   -0.99139E-03   -0.24773E-04    96   0.149E-01    0.513E-03
DAV:   2    -0.355127861799E+02    0.48264E-06   -0.17672E-06    64   0.141E-02    0.256E-03
DAV:   3    -0.355127862411E+02   -0.61215E-07   -0.33486E-07    48   0.527E-03    0.140E-03
DAV:   4    -0.355127863247E+02   -0.83596E-07   -0.12703E-07    48   0.289E-03    0.239E-04
DAV:   5    -0.355127863281E+02   -0.34156E-08   -0.42295E-08    48   0.128E-03    0.134E-04
DAV:   6    -0.355127863417E+02   -0.13550E-07   -0.25362E-08    48   0.609E-04
  70 F= -.35512786E+02 E0= -.35512786E+02  d E =-.991065E-03
damped:  g(F)=  0.000E+00 g(S)=  0.000E+00 dE (1.order)= 0.000E+00
 bond charge predicted
       N       E                     dE             d eps       ncg     rms          rms(c)
DAV:   1    -0.355140305896E+02   -0.12443E-02   -0.38980E-04    96   0.186E-01    0.624E-03
DAV:   2    -0.355140299521E+02    0.63747E-06   -0.27314E-06    64   0.171E-02    0.316E-03
DAV:   3    -0.355140300495E+02   -0.97339E-07   -0.49657E-07    48   0.639E-03    0.170E-03
DAV:   4    -0.355140301645E+02   -0.11503E-06   -0.17310E-07    48   0.346E-03    0.300E-04
DAV:   5    -0.355140301734E+02   -0.89149E-08   -0.53118E-08    48   0.152E-03    0.161E-04
DAV:   6    -0.355140301925E+02   -0.19069E-07   -0.28421E-08    48   0.764E-04
  71 F= -.35514030E+02 E0= -.35514030E+02  d E =-.124385E-02
damped:  g(F)=  0.000E+00 g(S)=  0.000E+00 dE (1.order)= 0.000E+00
 bond charge predicted
       N       E                     dE             d eps       ncg     rms          rms(c)
DAV:   1    -0.355155538240E+02   -0.15237E-02   -0.58928E-04    96   0.229E-01    0.748E-03
DAV:   2    -0.355155530196E+02    0.80438E-06   -0.42137E-06    64   0.205E-02    0.387E-03
DAV:   3    -0.355155531708E+02   -0.15114E-06   -0.74066E-07    48   0.777E-03    0.201E-03
DAV:   4    -0.355155533183E+02   -0.14753E-06   -0.24597E-07    48   0.422E-03    0.408E-04
DAV:   5    -0.355155533351E+02   -0.16794E-07   -0.70924E-08    48   0.186E-03    0.190E-04
DAV:   6    -0.355155533625E+02   -0.27402E-07   -0.33540E-08    48   0.977E-04
  72 F= -.35515553E+02 E0= -.35515553E+02  d E =-.152317E-02
damped:  g(F)=  0.000E+00 g(S)=  0.000E+00 dE (1.order)= 0.000E+00
 bond charge predicted
       N       E                     dE             d eps       ncg     rms          rms(c)
DAV:   1    -0.355173768888E+02   -0.18236E-02   -0.83888E-04    96   0.273E-01    0.893E-03
DAV:   2    -0.355173757943E+02    0.10944E-05   -0.60331E-06    64   0.244E-02    0.464E-03
DAV:   3    -0.355173760029E+02   -0.20856E-06   -0.10570E-06    56   0.930E-03    0.238E-03
DAV:   4    -0.355173762052E+02   -0.20230E-06   -0.34464E-07    48   0.507E-03    0.498E-04
DAV:   5    -0.355173762303E+02   -0.25147E-07   -0.93802E-08    48   0.223E-03    0.225E-04
DAV:   6    -0.355173762685E+02   -0.38200E-07   -0.40122E-08    48   0.118E-03
  73 F= -.35517376E+02 E0= -.35517376E+02  d E =-.182291E-02
damped:  g(F)=  0.000E+00 g(S)=  0.000E+00 dE (1.order)= 0.000E+00
 bond charge predicted
       N       E                     dE             d eps       ncg     rms          rms(c)
DAV:   1    -0.355194795654E+02   -0.21033E-02   -0.10896E-03    96   0.311E-01    0.105E-02
DAV:   2    -0.355194778961E+02    0.16694E-05   -0.76256E-06    64   0.287E-02    0.534E-03
DAV:   3    -0.355194781190E+02   -0.22297E-06   -0.13770E-06    64   0.108E-02    0.286E-03
DAV:   4    -0.355194784295E+02   -0.31046E-06   -0.46056E-07    48   0.588E-03    0.510E-04
DAV:   5    -0.355194784580E+02   -0.28500E-07   -0.11602E-07    48   0.258E-03    0.269E-04
DAV:   6    -0.355194785060E+02   -0.48001E-07   -0.45695E-08    48   0.129E-03
  74 F= -.35519479E+02 E0= -.35519479E+02  d E =-.210224E-02
damped:  g(F)=  0.000E+00 g(S)=  0.000E+00 dE (1.order)= 0.000E+00
 bond charge predicted
       N       E                     dE             d eps       ncg     rms          rms(c)
DAV:   1    -0.355217977420E+02   -0.23193E-02   -0.12914E-03    96   0.339E-01    0.119E-02
DAV:   2    -0.355217954980E+02    0.22441E-05   -0.91426E-06    64   0.322E-02    0.593E-03
DAV:   3    -0.355217957281E+02   -0.23015E-06   -0.16743E-06    64   0.121E-02    0.322E-03
DAV:   4    -0.355217961387E+02   -0.41058E-06   -0.57952E-07    48   0.664E-03    0.565E-04
DAV:   5    -0.355217961722E+02   -0.33537E-07   -0.13658E-07    48   0.292E-03    0.308E-04
DAV:   6    -0.355217962343E+02   -0.62074E-07   -0.50017E-08    48   0.140E-03
  75 F= -.35521796E+02 E0= -.35521796E+02  d E =-.231773E-02
damped:  g(F)=  0.000E+00 g(S)=  0.000E+00 dE (1.order)= 0.000E+00
 bond charge predicted
       N       E                     dE             d eps       ncg     rms          rms(c)
DAV:   1    -0.355217920029E+02    0.41693E-05   -0.35353E-07    48   0.558E-03    0.271E-04
DAV:   2    -0.355217920580E+02   -0.55070E-07   -0.34029E-08    48   0.142E-03    0.151E-04
DAV:   3    -0.355217921037E+02   -0.45701E-07   -0.16213E-08    48   0.520E-04    0.982E-05
DAV:   4    -0.355217922157E+02   -0.11203E-06   -0.16517E-08    48   0.412E-04    0.385E-05
DAV:   5    -0.355217922582E+02   -0.42540E-07   -0.14115E-08    48   0.216E-04    0.275E-05
DAV:   6    -0.355217923537E+02   -0.95427E-07   -0.15003E-08    48   0.173E-04
  76 F= -.35521792E+02 E0= -.35521792E+02  d E =0.388065E-05
damped:  g(F)=  0.000E+00 g(S)=  0.000E+00 dE (1.order)= 0.000E+00
 bond charge predicted
       N       E                     dE             d eps       ncg     rms          rms(c)
DAV:   1    -0.355217876799E+02    0.45783E-05   -0.11244E-06    64   0.102E-02    0.465E-04
DAV:   2    -0.355217877074E+02   -0.27476E-07   -0.66614E-08    48   0.240E-03    0.251E-04
DAV:   3    -0.355217877275E+02   -0.20158E-07   -0.19748E-08    48   0.751E-04    0.150E-04
DAV:   4    -0.355217877756E+02   -0.48106E-07   -0.18702E-08    48   0.573E-04    0.468E-05
DAV:   5    -0.355217877914E+02   -0.15757E-07   -0.15911E-08    48   0.256E-04    0.330E-05
DAV:   6    -0.355217878170E+02   -0.25572E-07   -0.15837E-08    48   0.114E-04
  77 F= -.35521788E+02 E0= -.35521788E+02  d E =0.453670E-05
damped:  g(F)=  0.000E+00 g(S)=  0.000E+00 dE (1.order)= 0.000E+00
 bond charge predicted
       N       E                     dE             d eps       ncg     rms          rms(c)
DAV:   1    -0.355217893698E+02   -0.15784E-05   -0.17880E-06    48   0.130E-02    0.550E-04
DAV:   2    -0.355217893761E+02   -0.62307E-08   -0.98207E-08    48   0.299E-03    0.307E-04
DAV:   3    -0.355217893802E+02   -0.41259E-08   -0.25070E-08    48   0.929E-04    0.185E-04
DAV:   4    -0.355217893923E+02   -0.12161E-07   -0.22268E-08    48   0.679E-04    0.537E-05
DAV:   5    -0.355217893972E+02   -0.48287E-08   -0.18496E-08    48   0.296E-04    0.390E-05
DAV:   6    -0.355217894031E+02   -0.59702E-08   -0.18051E-08    48   0.121E-04
  78 F= -.35521789E+02 E0= -.35521789E+02  d E =-.158619E-05
damped:  g(F)=  0.000E+00 g(S)=  0.000E+00 dE (1.order)= 0.000E+00
 bond charge predicted
       N       E                     dE             d eps       ncg     rms          rms(c)
DAV:   1    -0.355218073801E+02   -0.17983E-04   -0.19919E-06    48   0.138E-02    0.489E-04
DAV:   2    -0.355218073807E+02   -0.58799E-09   -0.10481E-07    48   0.307E-03    0.291E-04
DAV:   3    -0.355218073805E+02    0.17280E-09   -0.28134E-08    48   0.944E-04    0.173E-04
DAV:   4    -0.355218073823E+02   -0.17608E-08   -0.23433E-08    48   0.610E-04    0.465E-05
DAV:   5    -0.355218073840E+02   -0.16698E-08   -0.20415E-08    48   0.270E-04    0.348E-05
DAV:   6    -0.355218073857E+02   -0.17676E-08   -0.19983E-08    48   0.121E-04
  79 F= -.35521807E+02 E0= -.35521807E+02  d E =-.179826E-04
damped:  g(F)=  0.000E+00 g(S)=  0.000E+00 dE (1.order)= 0.000E+00
 bond charge predicted
       N       E                     dE             d eps       ncg     rms          rms(c)
DAV:   1    -0.355218524608E+02   -0.45077E-04   -0.22286E-06    48   0.146E-02    0.418E-04
DAV:   2    -0.355218524636E+02   -0.28047E-08   -0.10641E-07    48   0.310E-03    0.251E-04
DAV:   3    -0.355218524646E+02   -0.10205E-08   -0.30428E-08    48   0.946E-04    0.101E-04
DAV:   4    -0.355218524654E+02   -0.78853E-09   -0.23248E-08    48   0.442E-04    0.393E-05
DAV:   5    -0.355218524659E+02   -0.49909E-09   -0.21306E-08    48   0.209E-04    0.233E-05
DAV:   6    -0.355218524665E+02   -0.54843E-09   -0.20967E-08    48   0.126E-04
  80 F= -.35521852E+02 E0= -.35521852E+02  d E =-.450807E-04
damped:  g(F)=  0.000E+00 g(S)=  0.000E+00 dE (1.order)= 0.000E+00
 bond charge predicted
       N       E                     dE             d eps       ncg     rms          rms(c)
DAV:   1    -0.355219363544E+02   -0.83889E-04   -0.33673E-06    48   0.179E-02    0.529E-04
DAV:   2    -0.355219363598E+02   -0.54076E-08   -0.14295E-07    48   0.374E-03    0.282E-04
DAV:   3    -0.355219363651E+02   -0.52669E-08   -0.36202E-08    48   0.114E-03    0.130E-04
DAV:   4    -0.355219363661E+02   -0.95974E-09   -0.24758E-08    48   0.517E-04    0.413E-05
DAV:   5    -0.355219363658E+02    0.28717E-09   -0.22126E-08    48   0.244E-04    0.231E-05
DAV:   6    -0.355219363656E+02    0.14120E-09   -0.21384E-08    48   0.144E-04
  81 F= -.35521936E+02 E0= -.35521936E+02  d E =-.838992E-04
damped:  g(F)=  0.000E+00 g(S)=  0.000E+00 dE (1.order)= 0.000E+00
 bond charge predicted
       N       E                     dE             d eps       ncg     rms          rms(c)
DAV:   1    -0.355220922692E+02   -0.15590E-03   -0.77012E-06    48   0.268E-02    0.895E-04
DAV:   2    -0.355220922766E+02   -0.73642E-08   -0.29874E-07    48   0.564E-03    0.444E-04
DAV:   3    -0.355220922869E+02   -0.10297E-07   -0.56611E-08    48   0.175E-03    0.256E-04
DAV:   4    -0.355220922916E+02   -0.47148E-08   -0.29878E-08    48   0.801E-04    0.899E-05
DAV:   5    -0.355220922908E+02    0.74488E-09   -0.23627E-08    48   0.378E-04    0.438E-05
DAV:   6    -0.355220922904E+02    0.43224E-09   -0.21771E-08    48   0.208E-04
  82 F= -.35522092E+02 E0= -.35522092E+02  d E =-.155925E-03
damped:  g(F)=  0.000E+00 g(S)=  0.000E+00 dE (1.order)= 0.000E+00
 bond charge predicted
       N       E                     dE             d eps       ncg     rms          rms(c)
DAV:   1    -0.355223636915E+02   -0.27140E-03   -0.18290E-05    48   0.409E-02    0.146E-03
DAV:   2    -0.355223636987E+02   -0.71818E-08   -0.67546E-07    48   0.861E-03    0.695E-04
DAV:   3    -0.355223637204E+02   -0.21744E-07   -0.10609E-07    48   0.270E-03    0.407E-04
DAV:   4    -0.355223637313E+02   -0.10854E-07   -0.41487E-08    48   0.122E-03    0.144E-04
DAV:   5    -0.355223637304E+02    0.82014E-09   -0.26858E-08    48   0.573E-04    0.676E-05
DAV:   6    -0.355223637300E+02    0.45111E-09   -0.22567E-08    48   0.310E-04
  83 F= -.35522364E+02 E0= -.35522364E+02  d E =-.271440E-03
damped:  g(F)=  0.000E+00 g(S)=  0.000E+00 dE (1.order)= 0.000E+00
 bond charge predicted
       N       E                     dE             d eps       ncg     rms          rms(c)
DAV:   1    -0.355227983499E+02   -0.43462E-03   -0.40995E-05    48   0.608E-02    0.221E-03
DAV:   2    -0.355227983602E+02   -0.10307E-07   -0.14739E-06    48   0.127E-02    0.104E-03
DAV:   3    -0.355227984044E+02   -0.44238E-07   -0.21142E-07    48   0.399E-03    0.591E-04
DAV:   4    -0.355227984254E+02   -0.20918E-07   -0.65738E-08    48   0.180E-03    0.194E-04
DAV:   5    -0.355227984251E+02    0.20873E-09   -0.33425E-08    48   0.827E-04    0.920E-05
DAV:   6    -0.355227984253E+02   -0.12187E-09   -0.24362E-08    48   0.452E-04
  84 F= -.35522798E+02 E0= -.35522798E+02  d E =-.434695E-03
damped:  g(F)=  0.000E+00 g(S)=  0.000E+00 dE (1.order)= 0.000E+00
 bond charge predicted
       N       E                     dE             d eps       ncg     rms          rms(c)
DAV:   1    -0.355234296025E+02   -0.63118E-03   -0.81058E-05    48   0.851E-02    0.309E-03
DAV:   2    -0.355234296291E+02   -0.26543E-07   -0.28892E-06    64   0.177E-02    0.145E-03
DAV:   3    -0.355234297132E+02   -0.84134E-07   -0.39804E-07    48   0.555E-03    0.802E-04
DAV:   4    -0.355234297490E+02   -0.35760E-07   -0.10873E-07    48   0.251E-03    0.249E-04
DAV:   5    -0.355234297497E+02   -0.75261E-09   -0.44998E-08    48   0.114E-03    0.119E-04
DAV:   6    -0.355234297513E+02   -0.16228E-08   -0.27553E-08    48   0.628E-04
  85 F= -.35523430E+02 E0= -.35523430E+02  d E =-.631326E-03
damped:  g(F)=  0.000E+00 g(S)=  0.000E+00 dE (1.order)= 0.000E+00
 bond charge predicted
       N       E                     dE             d eps       ncg     rms          rms(c)
DAV:   1    -0.355242916068E+02   -0.86186E-03   -0.15168E-04    96   0.114E-01    0.403E-03
DAV:   2    -0.355242912629E+02    0.34391E-06   -0.11351E-06    64   0.104E-02    0.205E-03
DAV:   3    -0.355242913291E+02   -0.66209E-07   -0.21181E-07    48   0.401E-03    0.102E-03
DAV:   4    -0.355242913851E+02   -0.55978E-07   -0.76926E-08    48   0.211E-03    0.211E-04
DAV:   5    -0.355242913888E+02   -0.37010E-08   -0.32612E-08    48   0.894E-04    0.104E-04
DAV:   6    -0.355242913986E+02   -0.98187E-08   -0.23355E-08    48   0.471E-04
  86 F= -.35524291E+02 E0= -.35524291E+02  d E =-.861647E-03
damped:  g(F)=  0.000E+00 g(S)=  0.000E+00 dE (1.order)= 0.000E+00
 bond charge predicted
       N       E                     dE             d eps       ncg     rms          rms(c)
DAV:   1    -0.355254113456E+02   -0.11200E-02   -0.25194E-04    96   0.146E-01    0.522E-03
DAV:   2    -0.355254107955E+02    0.55010E-06   -0.18689E-06    64   0.134E-02    0.264E-03
DAV:   3    -0.355254108991E+02   -0.10362E-06   -0.33339E-07    48   0.517E-03    0.133E-03
DAV:   4    -0.355254109967E+02   -0.97631E-07   -0.11129E-07    48   0.272E-03    0.270E-04
DAV:   5    -0.355254110043E+02   -0.75602E-08   -0.38686E-08    48   0.114E-03    0.134E-04
DAV:   6    -0.355254110204E+02   -0.16146E-07   -0.24092E-08    48   0.591E-04
  87 F= -.35525411E+02 E0= -.35525411E+02  d E =-.111962E-02
damped:  g(F)=  0.000E+00 g(S)=  0.000E+00 dE (1.order)= 0.000E+00
 bond charge predicted
       N       E                     dE             d eps       ncg     rms          rms(c)
DAV:   1    -0.355268020996E+02   -0.13911E-02   -0.38809E-04    96   0.181E-01    0.655E-03
DAV:   2    -0.355268012649E+02    0.83468E-06   -0.29313E-06    64   0.171E-02    0.329E-03
DAV:   3    -0.355268014045E+02   -0.13953E-06   -0.51533E-07    48   0.654E-03    0.170E-03
DAV:   4    -0.355268015707E+02   -0.16623E-06   -0.16604E-07    48   0.345E-03    0.340E-04
DAV:   5    -0.355268015828E+02   -0.12087E-07   -0.49106E-08    48   0.145E-03    0.173E-04
DAV:   6    -0.355268016055E+02   -0.22758E-07   -0.26098E-08    48   0.724E-04
  88 F= -.35526802E+02 E0= -.35526802E+02  d E =-.139059E-02
damped:  g(F)=  0.000E+00 g(S)=  0.000E+00 dE (1.order)= 0.000E+00
 bond charge predicted
       N       E                     dE             d eps       ncg     rms          rms(c)
DAV:   1    -0.355284550233E+02   -0.16534E-02   -0.55517E-04    96   0.216E-01    0.781E-03
DAV:   2    -0.355284538824E+02    0.11409E-05   -0.42790E-06    64   0.207E-02    0.394E-03
DAV:   3    -0.355284540762E+02   -0.19374E-06   -0.73762E-07    56   0.787E-03    0.204E-03
DAV:   4    -0.355284543169E+02   -0.24077E-06   -0.23007E-07    48   0.415E-03    0.411E-04
DAV:   5    -0.355284543360E+02   -0.19097E-07   -0.62286E-08    48   0.174E-03    0.209E-04
DAV:   6    -0.355284543685E+02   -0.32485E-07   -0.29169E-08    48   0.861E-04
  89 F= -.35528454E+02 E0= -.35528454E+02  d E =-.165276E-02
damped:  g(F)=  0.000E+00 g(S)=  0.000E+00 dE (1.order)= 0.000E+00
 bond charge predicted
       N       E                     dE             d eps       ncg     rms          rms(c)
DAV:   1    -0.355302929935E+02   -0.18387E-02   -0.71141E-04    96   0.243E-01    0.858E-03
DAV:   2    -0.355302917348E+02    0.12587E-05   -0.55404E-06    64   0.226E-02    0.440E-03
DAV:   3    -0.355302920184E+02   -0.28363E-06   -0.92028E-07    56   0.865E-03    0.217E-03
DAV:   4    -0.355302922923E+02   -0.27385E-06   -0.26887E-07    48   0.451E-03    0.464E-04
DAV:   5    -0.355302923235E+02   -0.31182E-07   -0.72711E-08    48   0.188E-03    0.223E-04
DAV:   6    -0.355302923693E+02   -0.45851E-07   -0.32991E-08    48   0.994E-04
  90 F= -.35530292E+02 E0= -.35530292E+02  d E =-.183800E-02
damped:  g(F)=  0.000E+00 g(S)=  0.000E+00 dE (1.order)= 0.000E+00
 bond charge predicted
       N       E                     dE             d eps       ncg     rms          rms(c)
DAV:   1    -0.355320692449E+02   -0.17769E-02   -0.72009E-04    96   0.244E-01    0.863E-03
DAV:   2    -0.355320679520E+02    0.12929E-05   -0.59536E-06    64   0.237E-02    0.444E-03
DAV:   3    -0.355320682235E+02   -0.27154E-06   -0.98563E-07    56   0.901E-03    0.230E-03
DAV:   4    -0.355320685594E+02   -0.33589E-06   -0.29000E-07    48   0.473E-03    0.499E-04
DAV:   5    -0.355320685994E+02   -0.39951E-07   -0.75987E-08    48   0.196E-03    0.249E-04
DAV:   6    -0.355320686521E+02   -0.52749E-07   -0.32815E-08    48   0.988E-04
  91 F= -.35532069E+02 E0= -.35532069E+02  d E =-.177628E-02
damped:  g(F)=  0.000E+00 g(S)=  0.000E+00 dE (1.order)= 0.000E+00
 bond charge predicted
       N       E                     dE             d eps       ncg     rms          rms(c)
DAV:   1    -0.355320356655E+02    0.32934E-04   -0.28938E-07    48   0.506E-03    0.229E-04
DAV:   2    -0.355320357111E+02   -0.45572E-07   -0.25838E-08    48   0.120E-03    0.107E-04
DAV:   3    -0.355320357491E+02   -0.38007E-07   -0.14935E-08    48   0.418E-04    0.687E-05
DAV:   4    -0.355320358207E+02   -0.71610E-07   -0.14549E-08    48   0.236E-04    0.321E-05
DAV:   5    -0.355320358885E+02   -0.67796E-07   -0.14523E-08    48   0.163E-04    0.196E-05
DAV:   6    -0.355320359786E+02   -0.90094E-07   -0.15633E-08    48   0.160E-04
  92 F= -.35532036E+02 E0= -.35532036E+02  d E =0.326735E-04
damped:  g(F)=  0.000E+00 g(S)=  0.000E+00 dE (1.order)= 0.000E+00
 bond charge predicted
       N       E                     dE             d eps       ncg     rms          rms(c)
DAV:   1    -0.355319774449E+02    0.58444E-04   -0.92740E-07    64   0.928E-03    0.366E-04
DAV:   2    -0.355319774658E+02   -0.20900E-07   -0.52331E-08    48   0.209E-03    0.175E-04
DAV:   3    -0.355319774820E+02   -0.16208E-07   -0.20290E-08    48   0.674E-04    0.113E-04
DAV:   4    -0.355319775102E+02   -0.28236E-07   -0.17508E-08    48   0.330E-04    0.467E-05
DAV:   5    -0.355319775334E+02   -0.23213E-07   -0.17228E-08    48   0.178E-04    0.216E-05
DAV:   6    -0.355319775505E+02   -0.17064E-07   -0.17459E-08    48   0.953E-05
  93 F= -.35531978E+02 E0= -.35531978E+02  d E =0.584281E-04
damped:  g(F)=  0.000E+00 g(S)=  0.000E+00 dE (1.order)= 0.000E+00
 bond charge predicted
       N       E                     dE             d eps       ncg     rms          rms(c)
DAV:   1    -0.355319055428E+02    0.71991E-04   -0.16708E-06    48   0.126E-02    0.442E-04
DAV:   2    -0.355319055451E+02   -0.22746E-08   -0.83847E-08    48   0.279E-03    0.219E-04
DAV:   3    -0.355319055492E+02   -0.41045E-08   -0.26289E-08    48   0.883E-04    0.142E-04
DAV:   4    -0.355319055558E+02   -0.66229E-08   -0.20694E-08    48   0.416E-04    0.564E-05
DAV:   5    -0.355319055608E+02   -0.50336E-08   -0.19655E-08    48   0.210E-04    0.264E-05
DAV:   6    -0.355319055639E+02   -0.30382E-08   -0.19547E-08    48   0.106E-04
  94 F= -.35531906E+02 E0= -.35531906E+02  d E =0.719866E-04
damped:  g(F)=  0.000E+00 g(S)=  0.000E+00 dE (1.order)= 0.000E+00
 bond charge predicted
       N       E                     dE             d eps       ncg     rms          rms(c)
DAV:   1    -0.355318370223E+02    0.68538E-04   -0.26790E-06    48   0.158E-02    0.464E-04
DAV:   2    -0.355318370256E+02   -0.32478E-08   -0.12878E-07    48   0.353E-03    0.250E-04
DAV:   3    -0.355318370273E+02   -0.16598E-08   -0.33500E-08    48   0.109E-03    0.153E-04
DAV:   4    -0.355318370293E+02   -0.20700E-08   -0.23735E-08    48   0.512E-04    0.473E-05
DAV:   5    -0.355318370304E+02   -0.10405E-08   -0.21519E-08    48   0.248E-04    0.266E-05
DAV:   6    -0.355318370313E+02   -0.90245E-09   -0.20974E-08    48   0.136E-04
  95 F= -.35531837E+02 E0= -.35531837E+02  d E =0.685326E-04
damped:  g(F)=  0.000E+00 g(S)=  0.000E+00 dE (1.order)= 0.000E+00
 bond charge predicted
       N       E                     dE             d eps       ncg     rms          rms(c)
DAV:   1    -0.355317911369E+02    0.45893E-04   -0.50146E-06    48   0.213E-02    0.530E-04
DAV:   2    -0.355317911516E+02   -0.14677E-07   -0.23298E-07    48   0.478E-03    0.318E-04
DAV:   3    -0.355317911560E+02   -0.43810E-08   -0.46777E-08    48   0.144E-03    0.150E-04
DAV:   4    -0.355317911577E+02   -0.17631E-08   -0.27570E-08    48   0.670E-04    0.437E-05
DAV:   5    -0.355317911583E+02   -0.59981E-09   -0.23046E-08    48   0.332E-04    0.288E-05
DAV:   6    -0.355317911592E+02   -0.88357E-09   -0.21860E-08    48   0.195E-04
  96 F= -.35531791E+02 E0= -.35531791E+02  d E =0.458720E-04
damped:  g(F)=  0.000E+00 g(S)=  0.000E+00 dE (1.order)= 0.000E+00
 bond charge predicted
       N       E                     dE             d eps       ncg     rms          rms(c)
DAV:   1    -0.355317886034E+02    0.25550E-05   -0.10895E-05    48   0.312E-02    0.748E-04
DAV:   2    -0.355317886411E+02   -0.37704E-07   -0.48958E-07    48   0.698E-03    0.457E-04
DAV:   3    -0.355317886518E+02   -0.10756E-07   -0.79520E-08    48   0.213E-03    0.201E-04
DAV:   4    -0.355317886545E+02   -0.26728E-08   -0.35845E-08    48   0.988E-04    0.551E-05
DAV:   5    -0.355317886552E+02   -0.67826E-09   -0.25678E-08    48   0.493E-04    0.362E-05
DAV:   6    -0.355317886555E+02   -0.29991E-09   -0.22652E-08    48   0.287E-04
  97 F= -.35531789E+02 E0= -.35531789E+02  d E =0.250373E-05
damped:  g(F)=  0.000E+00 g(S)=  0.000E+00 dE (1.order)= 0.000E+00
 bond charge predicted
       N       E                     dE             d eps       ncg     rms          rms(c)
DAV:   1    -0.355318640557E+02   -0.75400E-04   -0.31238E-05    48   0.529E-02    0.130E-03
DAV:   2    -0.355318641621E+02   -0.10645E-06   -0.13736E-06    48   0.118E-02    0.770E-04
DAV:   3    -0.355318641906E+02   -0.28498E-07   -0.19576E-07    48   0.369E-03    0.407E-04
DAV:   4    -0.355318641989E+02   -0.82357E-08   -0.64863E-08    48   0.173E-03    0.107E-04
DAV:   5    -0.355318642002E+02   -0.13827E-08   -0.34342E-08    48   0.853E-04    0.641E-05
DAV:   6    -0.355318642005E+02   -0.29536E-09   -0.25241E-08    48   0.493E-04
  98 F= -.35531864E+02 E0= -.35531864E+02  d E =-.755450E-04
damped:  g(F)=  0.000E+00 g(S)=  0.000E+00 dE (1.order)= 0.000E+00
 bond charge predicted
[...]
DAV:   6    -0.355415403739E+02   -0.54706E-09   -0.23637E-08    48   0.387E-04
 110 F= -.35541540E+02 E0= -.35541540E+02  d E =-.126611E-03
damped:  g(F)=  0.000E+00 g(S)=  0.000E+00 dE (1.order)= 0.000E+00
 bond charge predicted
       N       E                     dE             d eps       ncg     rms          rms(c)
DAV:   1    -0.355417317979E+02   -0.19142E-03   -0.31364E-05    48   0.537E-02    0.141E-03
DAV:   2    -0.355417318694E+02   -0.71467E-07   -0.12069E-06    48   0.115E-02    0.812E-04
DAV:   3    -0.355417319025E+02   -0.33179E-07   -0.16466E-07    48   0.342E-03    0.301E-04
DAV:   4    -0.355417319071E+02   -0.46005E-08   -0.57201E-08    48   0.154E-03    0.101E-04
DAV:   5    -0.355417319077E+02   -0.60777E-09   -0.32331E-08    48   0.748E-04    0.633E-05
DAV:   6    -0.355417319082E+02   -0.44247E-09   -0.24733E-08    48   0.458E-04
 111 F= -.35541732E+02 E0= -.35541732E+02  d E =-.191534E-03
damped:  g(F)=  0.000E+00 g(S)=  0.000E+00 dE (1.order)= 0.000E+00
 bond charge predicted
       N       E                     dE             d eps       ncg     rms          rms(c)
DAV:   1    -0.355420429092E+02   -0.31100E-03   -0.50408E-05    48   0.683E-02    0.192E-03
DAV:   2    -0.355420430064E+02   -0.97175E-07   -0.19075E-06    48   0.146E-02    0.105E-03
DAV:   3    -0.355420430621E+02   -0.55775E-07   -0.25235E-07    48   0.438E-03    0.473E-04
DAV:   4    -0.355420430734E+02   -0.11293E-07   -0.78503E-08    48   0.199E-03    0.142E-04
DAV:   5    -0.355420430736E+02   -0.13370E-09   -0.38548E-08    48   0.948E-04    0.835E-05
DAV:   6    -0.355420430736E+02   -0.71964E-10   -0.26505E-08    48   0.567E-04
 112 F= -.35542043E+02 E0= -.35542043E+02  d E =-.311165E-03
damped:  g(F)=  0.000E+00 g(S)=  0.000E+00 dE (1.order)= 0.000E+00
 bond charge predicted
       N       E                     dE             d eps       ncg     rms          rms(c)
DAV:   1    -0.355425261539E+02   -0.48308E-03   -0.81664E-05    48   0.869E-02    0.267E-03
DAV:   2    -0.355425262715E+02   -0.11752E-06   -0.30479E-06    48   0.186E-02    0.138E-03
DAV:   3    -0.355425263573E+02   -0.85828E-07   -0.39883E-07    48   0.566E-03    0.730E-04
DAV:   4    -0.355425263880E+02   -0.30687E-07   -0.11300E-07    48   0.257E-03    0.216E-04
DAV:   5    -0.355425263880E+02   -0.74579E-10   -0.48105E-08    48   0.121E-03    0.114E-04
DAV:   6    -0.355425263882E+02   -0.19918E-09   -0.29299E-08    48   0.692E-04
 113 F= -.35542526E+02 E0= -.35542526E+02  d E =-.483315E-03
damped:  g(F)=  0.000E+00 g(S)=  0.000E+00 dE (1.order)= 0.000E+00
 bond charge predicted
       N       E                     dE             d eps       ncg     rms          rms(c)
DAV:   1    -0.355432253722E+02   -0.69898E-03   -0.13622E-04    96   0.110E-01    0.356E-03
DAV:   2    -0.355432251161E+02    0.25613E-06   -0.10606E-06    64   0.100E-02    0.188E-03
DAV:   3    -0.355432251774E+02   -0.61258E-07   -0.19982E-07    48   0.389E-03    0.953E-04
DAV:   4    -0.355432252334E+02   -0.56025E-07   -0.74114E-08    48   0.205E-03    0.197E-04
DAV:   5    -0.355432252347E+02   -0.13308E-08   -0.33539E-08    48   0.885E-04    0.982E-05
DAV:   6    -0.355432252418E+02   -0.70220E-08   -0.24427E-08    48   0.462E-04
 114 F= -.35543225E+02 E0= -.35543225E+02  d E =-.698854E-03
damped:  g(F)=  0.000E+00 g(S)=  0.000E+00 dE (1.order)= 0.000E+00
 bond charge predicted
       N       E                     dE             d eps       ncg     rms          rms(c)
DAV:   1    -0.355441878722E+02   -0.96264E-03   -0.21740E-04    96   0.137E-01    0.464E-03
DAV:   2    -0.355441874365E+02    0.43576E-06   -0.16515E-06    64   0.126E-02    0.241E-03
DAV:   3    -0.355441875321E+02   -0.95676E-07   -0.29362E-07    48   0.484E-03    0.121E-03
DAV:   4    -0.355441876227E+02   -0.90596E-07   -0.97451E-08    48   0.252E-03    0.249E-04
DAV:   5    -0.355441876273E+02   -0.45111E-08   -0.37138E-08    48   0.106E-03    0.121E-04
DAV:   6    -0.355441876393E+02   -0.12069E-07   -0.24634E-08    48   0.555E-04
 115 F= -.35544188E+02 E0= -.35544188E+02  d E =-.962398E-03
damped:  g(F)=  0.000E+00 g(S)=  0.000E+00 dE (1.order)= 0.000E+00
 bond charge predicted
       N       E                     dE             d eps       ncg     rms          rms(c)
DAV:   1    -0.355454575369E+02   -0.12699E-02   -0.34571E-04    96   0.172E-01    0.593E-03
DAV:   2    -0.355454568662E+02    0.67075E-06   -0.26199E-06    64   0.156E-02    0.306E-03
DAV:   3    -0.355454570219E+02   -0.15570E-06   -0.44590E-07    48   0.601E-03    0.149E-03
DAV:   4    -0.355454571545E+02   -0.13263E-06   -0.13587E-07    48   0.312E-03    0.318E-04
DAV:   5    -0.355454571639E+02   -0.94162E-08   -0.44209E-08    48   0.130E-03    0.150E-04
DAV:   6    -0.355454571830E+02   -0.19084E-07   -0.25729E-08    48   0.692E-04
 116 F= -.35545457E+02 E0= -.35545457E+02  d E =-.126954E-02
damped:  g(F)=  0.000E+00 g(S)=  0.000E+00 dE (1.order)= 0.000E+00
 bond charge predicted
       N       E                     dE             d eps       ncg     rms          rms(c)
DAV:   1    -0.355470660823E+02   -0.16089E-02   -0.53816E-04    96   0.213E-01    0.752E-03
DAV:   2    -0.355470650243E+02    0.10580E-05   -0.41369E-06    64   0.199E-02    0.384E-03
DAV:   3    -0.355470652488E+02   -0.22451E-06   -0.69210E-07    56   0.759E-03    0.191E-03
DAV:   4    -0.355470654746E+02   -0.22580E-06   -0.20533E-07    48   0.393E-03    0.403E-04
DAV:   5    -0.355470654905E+02   -0.15893E-07   -0.57730E-08    48   0.163E-03    0.195E-04
DAV:   6    -0.355470655187E+02   -0.28137E-07   -0.28678E-08    48   0.840E-04
 117 F= -.35547066E+02 E0= -.35547066E+02  d E =-.160834E-02
damped:  g(F)=  0.000E+00 g(S)=  0.000E+00 dE (1.order)= 0.000E+00
 bond charge predicted
       N       E                     dE             d eps       ncg     rms          rms(c)
DAV:   1    -0.355490084789E+02   -0.19430E-02   -0.79271E-04    96   0.258E-01    0.922E-03
DAV:   2    -0.355490069044E+02    0.15745E-05   -0.62695E-06    64   0.247E-02    0.468E-03
DAV:   3    -0.355490072033E+02   -0.29898E-06   -0.10497E-06    64   0.943E-03    0.239E-03
DAV:   4    -0.355490075678E+02   -0.36449E-06   -0.31260E-07    48   0.492E-03    0.508E-04
DAV:   5    -0.355490075939E+02   -0.26064E-07   -0.80058E-08    48   0.205E-03    0.255E-04
DAV:   6    -0.355490076343E+02   -0.40420E-07   -0.34155E-08    48   0.102E-03
 118 F= -.35549008E+02 E0= -.35549008E+02  d E =-.194212E-02
damped:  g(F)=  0.000E+00 g(S)=  0.000E+00 dE (1.order)= 0.000E+00
 bond charge predicted
       N       E                     dE             d eps       ncg     rms          rms(c)
DAV:   1    -0.355510926502E+02   -0.20851E-02   -0.95214E-04    96   0.281E-01    0.983E-03
DAV:   2    -0.355510909725E+02    0.16777E-05   -0.75489E-06    64   0.262E-02    0.507E-03
DAV:   3    -0.355510913804E+02   -0.40791E-06   -0.12495E-06    64   0.101E-02    0.249E-03
DAV:   4    -0.355510917712E+02   -0.39086E-06   -0.35449E-07    48   0.522E-03    0.545E-04
DAV:   5    -0.355510918143E+02   -0.43099E-07   -0.93276E-08    48   0.217E-03    0.264E-04
DAV:   6    -0.355510918728E+02   -0.58453E-07   -0.39328E-08    48   0.115E-03
 119 F= -.35551092E+02 E0= -.35551092E+02  d E =-.208424E-02
damped:  g(F)=  0.000E+00 g(S)=  0.000E+00 dE (1.order)= 0.000E+00
 bond charge predicted
       N       E                     dE             d eps       ncg     rms          rms(c)
DAV:   1    -0.355510620808E+02    0.29734E-04   -0.25437E-07    48   0.482E-03    0.179E-04
DAV:   2    -0.355510621346E+02   -0.53782E-07   -0.25143E-08    48   0.112E-03    0.981E-05
DAV:   3    -0.355510622063E+02   -0.71719E-07   -0.15202E-08    48   0.417E-04    0.550E-05
DAV:   4    -0.355510622900E+02   -0.83726E-07   -0.14451E-08    48   0.245E-04    0.260E-05
DAV:   5    -0.355510623746E+02   -0.84579E-07   -0.14661E-08    48   0.191E-04    0.182E-05
DAV:   6    -0.355510624902E+02   -0.11555E-06   -0.16227E-08    64   0.191E-04
 120 F= -.35551062E+02 E0= -.35551062E+02  d E =0.293826E-04
damped:  g(F)=  0.000E+00 g(S)=  0.000E+00 dE (1.order)= 0.000E+00
 bond charge predicted
       N       E                     dE             d eps       ncg     rms          rms(c)
DAV:   1    -0.355510039928E+02    0.58382E-04   -0.88937E-07    64   0.923E-03    0.293E-04
DAV:   2    -0.355510040172E+02   -0.24414E-07   -0.51975E-08    48   0.200E-03    0.147E-04
DAV:   3    -0.355510040408E+02   -0.23539E-07   -0.20551E-08    48   0.644E-04    0.835E-05
DAV:   4    -0.355510040653E+02   -0.24539E-07   -0.17532E-08    48   0.302E-04    0.292E-05
DAV:   5    -0.355510040824E+02   -0.17052E-07   -0.17341E-08    48   0.151E-04    0.138E-05
DAV:   6    -0.355510040980E+02   -0.15636E-07   -0.17801E-08    48   0.893E-05
 121 F= -.35551004E+02 E0= -.35551004E+02  d E =0.583921E-04
damped:  g(F)=  0.000E+00 g(S)=  0.000E+00 dE (1.order)= 0.000E+00
 bond charge predicted
       N       E                     dE             d eps       ncg     rms          rms(c)
DAV:   1    -0.355509189892E+02    0.85093E-04   -0.18179E-06    48   0.133E-02    0.430E-04
DAV:   2    -0.355509189967E+02   -0.74242E-08   -0.90569E-08    48   0.286E-03    0.209E-04
DAV:   3    -0.355509190021E+02   -0.53867E-08   -0.27674E-08    48   0.913E-04    0.127E-04
DAV:   4    -0.355509190074E+02   -0.53876E-08   -0.21023E-08    48   0.415E-04    0.412E-05
DAV:   5    -0.355509190098E+02   -0.23763E-08   -0.19895E-08    48   0.194E-04    0.177E-05
DAV:   6    -0.355509190117E+02   -0.18586E-08   -0.19925E-08    48   0.102E-04
 122 F= -.35550919E+02 E0= -.35550919E+02  d E =0.850863E-04
damped:  g(F)=  0.000E+00 g(S)=  0.000E+00 dE (1.order)= 0.000E+00
 bond charge predicted
       N       E                     dE             d eps       ncg     rms          rms(c)
DAV:   1    -0.355508109328E+02    0.10808E-03   -0.29564E-06    48   0.169E-02    0.564E-04
DAV:   2    -0.355508109371E+02   -0.42527E-08   -0.13732E-07    48   0.367E-03    0.269E-04
DAV:   3    -0.355508109399E+02   -0.28535E-08   -0.35162E-08    48   0.118E-03    0.169E-04
DAV:   4    -0.355508109428E+02   -0.28234E-08   -0.23704E-08    48   0.532E-04    0.541E-05
DAV:   5    -0.355508109435E+02   -0.75715E-09   -0.21514E-08    48   0.248E-04    0.215E-05
DAV:   6    -0.355508109440E+02   -0.50477E-09   -0.21061E-08    48   0.129E-04
 123 F= -.35550811E+02 E0= -.35550811E+02  d E =0.108068E-03
damped:  g(F)=  0.000E+00 g(S)=  0.000E+00 dE (1.order)= 0.000E+00
 bond charge predicted
       N       E                     dE             d eps       ncg     rms          rms(c)
DAV:   1    -0.355506849217E+02    0.12602E-03   -0.42077E-06    48   0.202E-02    0.680E-04
DAV:   2    -0.355506849256E+02   -0.38872E-08   -0.18860E-07    48   0.442E-03    0.325E-04
DAV:   3    -0.355506849289E+02   -0.32405E-08   -0.42481E-08    48   0.142E-03    0.205E-04
DAV:   4    -0.355506849323E+02   -0.34297E-08   -0.25894E-08    48   0.640E-04    0.664E-05
DAV:   5    -0.355506849334E+02   -0.10803E-08   -0.22464E-08    48   0.301E-04    0.263E-05
DAV:   6    -0.355506849339E+02   -0.52137E-09   -0.21643E-08    48   0.157E-04
 124 F= -.35550685E+02 E0= -.35550685E+02  d E =0.126010E-03
damped:  g(F)=  0.000E+00 g(S)=  0.000E+00 dE (1.order)= 0.000E+00
 bond charge predicted
       N       E                     dE             d eps       ncg     rms          rms(c)
DAV:   1    -0.355505482806E+02    0.13665E-03   -0.53847E-06    48   0.229E-02    0.751E-04
DAV:   2    -0.355505482865E+02   -0.58430E-08   -0.23718E-07    48   0.501E-03    0.366E-04
DAV:   3    -0.355505482905E+02   -0.40366E-08   -0.49006E-08    48   0.160E-03    0.228E-04
DAV:   4    -0.355505482946E+02   -0.41039E-08   -0.27633E-08    48   0.727E-04    0.715E-05
DAV:   5    -0.355505482960E+02   -0.14302E-08   -0.23110E-08    48   0.342E-04    0.297E-05
DAV:   6    -0.355505482968E+02   -0.76261E-09   -0.21958E-08    48   0.181E-04
 125 F= -.35550548E+02 E0= -.35550548E+02  d E =0.136637E-03
damped:  g(F)=  0.000E+00 g(S)=  0.000E+00 dE (1.order)= 0.000E+00
 bond charge predicted
       N       E                     dE             d eps       ncg     rms          rms(c)
DAV:   1    -0.355503976510E+02    0.15065E-03   -0.78139E-06    48   0.274E-02    0.851E-04
DAV:   2    -0.355503976642E+02   -0.13236E-07   -0.33776E-07    48   0.604E-03    0.436E-04
DAV:   3    -0.355503976710E+02   -0.68260E-08   -0.61622E-08    48   0.191E-03    0.257E-04
DAV:   4    -0.355503976761E+02   -0.50629E-08   -0.30863E-08    48   0.876E-04    0.733E-05
DAV:   5    -0.355503976778E+02   -0.16707E-08   -0.24125E-08    48   0.413E-04    0.341E-05
DAV:   6    -0.355503976787E+02   -0.95201E-09   -0.22409E-08    48   0.226E-04
 126 F= -.35550398E+02 E0= -.35550398E+02  d E =0.150618E-03
damped:  g(F)=  0.000E+00 g(S)=  0.000E+00 dE (1.order)= 0.000E+00
 bond charge predicted
       N       E                     dE             d eps       ncg     rms          rms(c)
DAV:   1    -0.355502501425E+02    0.14754E-03   -0.10953E-05    48   0.323E-02    0.924E-04
DAV:   2    -0.355502501674E+02   -0.24886E-07   -0.47209E-07    48   0.717E-03    0.510E-04
DAV:   3    -0.355502501783E+02   -0.10870E-07   -0.77874E-08    48   0.223E-03    0.266E-04
DAV:   4    -0.355502501837E+02   -0.54386E-08   -0.35241E-08    48   0.103E-03    0.691E-05
DAV:   5    -0.355502501852E+02   -0.15229E-08   -0.25568E-08    48   0.494E-04    0.389E-05
DAV:   6    -0.355502501866E+02   -0.13256E-08   -0.22903E-08    48   0.280E-04
 127 F= -.35550250E+02 E0= -.35550250E+02  d E =0.147492E-03
damped:  g(F)=  0.000E+00 g(S)=  0.000E+00 dE (1.order)= 0.000E+00
 bond charge predicted
       N       E                     dE             d eps       ncg     rms          rms(c)
DAV:   1    -0.355501307338E+02    0.11945E-03   -0.15742E-05    48   0.382E-02    0.100E-03
DAV:   2    -0.355501307767E+02   -0.42917E-07   -0.68388E-07    48   0.859E-03    0.597E-04
DAV:   3    -0.355501307920E+02   -0.15292E-07   -0.10302E-07    48   0.263E-03    0.273E-04
DAV:   4    -0.355501307978E+02   -0.57692E-08   -0.42019E-08    48   0.122E-03    0.712E-05
DAV:   5    -0.355501307997E+02   -0.19406E-08   -0.27725E-08    48   0.596E-04    0.479E-05
DAV:   6    -0.355501308018E+02   -0.20282E-08   -0.23592E-08    48   0.344E-04
 128 F= -.35550131E+02 E0= -.35550131E+02  d E =0.119385E-03
damped:  g(F)=  0.000E+00 g(S)=  0.000E+00 dE (1.order)= 0.000E+00
 bond charge predicted
       N       E                     dE             d eps       ncg     rms          rms(c)
DAV:   1    -0.355500706231E+02    0.60177E-04   -0.25496E-05    48   0.479E-02    0.118E-03
DAV:   2    -0.355500707052E+02   -0.82099E-07   -0.11283E-06    48   0.109E-02    0.733E-04
DAV:   3    -0.355500707289E+02   -0.23733E-07   -0.15632E-07    48   0.331E-03    0.297E-04
DAV:   4    -0.355500707354E+02   -0.64474E-08   -0.55621E-08    48   0.153E-03    0.894E-05
DAV:   5    -0.355500707377E+02   -0.23535E-08   -0.31847E-08    48   0.761E-04    0.619E-05
DAV:   6    -0.355500707401E+02   -0.24008E-08   -0.24941E-08    48   0.438E-04
 129 F= -.35550071E+02 E0= -.35550071E+02  d E =0.600616E-04
damped:  g(F)=  0.000E+00 g(S)=  0.000E+00 dE (1.order)= 0.000E+00
 bond charge predicted
       N       E                     dE             d eps       ncg     rms          rms(c)
DAV:   1    -0.355500997858E+02   -0.29048E-04   -0.49540E-05    48   0.664E-02    0.161E-03
DAV:   2    -0.355500999571E+02   -0.17133E-06   -0.22048E-06    48   0.150E-02    0.988E-04
DAV:   3    -0.355501000011E+02   -0.44004E-07   -0.29313E-07    48   0.464E-03    0.421E-04
DAV:   4    -0.355501000114E+02   -0.10250E-07   -0.89596E-08    48   0.215E-03    0.115E-04
DAV:   5    -0.355501000149E+02   -0.34977E-08   -0.42141E-08    48   0.107E-03    0.791E-05
DAV:   6    -0.355501000164E+02   -0.15634E-08   -0.27992E-08    48   0.614E-04
 130 F= -.35550100E+02 E0= -.35550100E+02  d E =-.292763E-04
damped:  g(F)=  0.000E+00 g(S)=  0.000E+00 dE (1.order)= 0.000E+00
 bond charge predicted
       N       E                     dE             d eps       ncg     rms          rms(c)
DAV:   1    -0.355502553679E+02   -0.15535E-03   -0.10197E-04    64   0.952E-02    0.236E-03
DAV:   2    -0.355502557261E+02   -0.35812E-06   -0.45560E-06    48   0.215E-02    0.139E-03
DAV:   3    -0.355502558122E+02   -0.86094E-07   -0.60738E-07    48   0.676E-03    0.756E-04
DAV:   4    -0.355502558378E+02   -0.25655E-07   -0.16671E-07    48   0.318E-03    0.187E-04
DAV:   5    -0.355502558427E+02   -0.48376E-08   -0.65250E-08    48   0.156E-03    0.122E-04
DAV:   6    -0.355502558436E+02   -0.97612E-09   -0.34968E-08    48   0.886E-04
 131 F= -.35550256E+02 E0= -.35550256E+02  d E =-.155827E-03
damped:  g(F)=  0.000E+00 g(S)=  0.000E+00 dE (1.order)= 0.000E+00
 bond charge predicted
       N       E                     dE             d eps       ncg     rms          rms(c)
DAV:   1    -0.355505770719E+02   -0.32123E-03   -0.22408E-04    96   0.138E-01    0.366E-03
DAV:   2    -0.355505770363E+02    0.35625E-07   -0.21006E-06    48   0.133E-02    0.211E-03
DAV:   3    -0.355505771124E+02   -0.76065E-07   -0.32825E-07    48   0.507E-03    0.960E-04
DAV:   4    -0.355505771508E+02   -0.38459E-07   -0.11293E-07    48   0.261E-03    0.208E-04
DAV:   5    -0.355505771544E+02   -0.35359E-08   -0.46880E-08    48   0.124E-03    0.115E-04
DAV:   6    -0.355505771564E+02   -0.20227E-08   -0.29296E-08    48   0.683E-04
 132 F= -.35550577E+02 E0= -.35550577E+02  d E =-.321313E-03
damped:  g(F)=  0.000E+00 g(S)=  0.000E+00 dE (1.order)= 0.000E+00
 bond charge predicted
       N       E                     dE             d eps       ncg     rms          rms(c)
DAV:   1    -0.355510970981E+02   -0.51994E-03   -0.44854E-04    96   0.195E-01    0.521E-03
DAV:   2    -0.355510970391E+02    0.59081E-07   -0.42784E-06    64   0.189E-02    0.298E-03
DAV:   3    -0.355510971745E+02   -0.13543E-06   -0.63644E-07    48   0.722E-03    0.139E-03
DAV:   4    -0.355510972478E+02   -0.73306E-07   -0.20453E-07    48   0.371E-03    0.314E-04
DAV:   5    -0.355510972553E+02   -0.74965E-08   -0.71630E-08    48   0.174E-03    0.171E-04
DAV:   6    -0.355510972610E+02   -0.57441E-08   -0.37319E-08    48   0.963E-04
 133 F= -.35551097E+02 E0= -.35551097E+02  d E =-.520105E-03
damped:  g(F)=  0.000E+00 g(S)=  0.000E+00 dE (1.order)= 0.000E+00
 bond charge predicted
       N       E                     dE             d eps       ncg     rms          rms(c)
DAV:   1    -0.355518219326E+02   -0.72468E-03   -0.83366E-04    96   0.266E-01    0.715E-03
DAV:   2    -0.355518218331E+02    0.99578E-07   -0.81062E-06    64   0.260E-02    0.409E-03
DAV:   3    -0.355518220453E+02   -0.21225E-06   -0.11801E-06    60   0.994E-03    0.200E-03
DAV:   4    -0.355518221892E+02   -0.14391E-06   -0.37634E-07    48   0.520E-03    0.446E-04
DAV:   5    -0.355518222022E+02   -0.12996E-07   -0.11818E-07    48   0.242E-03    0.244E-04
DAV:   6    -0.355518222142E+02   -0.11972E-07   -0.52409E-08    48   0.131E-03
 134 F= -.35551822E+02 E0= -.35551822E+02  d E =-.724953E-03
damped:  g(F)=  0.000E+00 g(S)=  0.000E+00 dE (1.order)= 0.000E+00
 bond charge predicted
       N       E                     dE             d eps       ncg     rms          rms(c)
DAV:   1    -0.355526906480E+02   -0.86845E-03   -0.10820E-03    96   0.302E-01    0.809E-03
DAV:   2    -0.355526906274E+02    0.20650E-07   -0.10978E-05    64   0.299E-02    0.469E-03
DAV:   3    -0.355526909275E+02   -0.30015E-06   -0.15994E-06    48   0.116E-02    0.199E-03
DAV:   4    -0.355526910733E+02   -0.14572E-06   -0.48595E-07    48   0.592E-03    0.553E-04
DAV:   5    -0.355526910917E+02   -0.18414E-07   -0.14217E-07    48   0.275E-03    0.306E-04
DAV:   6    -0.355526911095E+02   -0.17851E-07   -0.63669E-08    48   0.160E-03
 135 F= -.35552691E+02 E0= -.35552691E+02  d E =-.868895E-03
damped:  g(F)=  0.000E+00 g(S)=  0.000E+00 dE (1.order)= 0.000E+00
 reached required accuracy - stopping structural energy minimisation
