unknown system                          
           1
    30.000000    0.000000    0.000000
     0.000000   30.000000    0.000000
     0.000000    0.000000   30.000000
   H    C    N 
   3   2   1
Direct configuration=     1
   0.47580997  0.46164652  0.49813587
   0.46640948  0.51737837  0.47498985
   0.48086801  0.51019489  0.53239589
   0.48497170  0.49670090  0.49825424
   0.53339004  0.49950153  0.48527264
   0.55856086  0.51459674  0.51095147
Direct configuration=     2
   0.47581677  0.46165005  0.49813671
   0.46641469  0.51737878  0.47499214
   0.48085962  0.51019572  0.53240110
   0.48497519  0.49670403  0.49825862
   0.53339129  0.49949730  0.48526012
   0.55855250  0.51459308  0.51095127
Direct configuration=     3
   0.47582620  0.46165422  0.49813787
   0.46642138  0.51737972  0.47499492
   0.48085003  0.51019686  0.53240742
   0.48497883  0.49670804  0.49826403
   0.53339247  0.49949234  0.48524403
   0.55854115  0.51458777  0.51095169
Direct configuration=     4
   0.47582647  0.46165411  0.49813786
   0.46642136  0.51737985  0.47499483
   0.48085039  0.51019688  0.53240730
   0.48497861  0.49670806  0.49826402
   0.53339244  0.49949264  0.48524423
   0.55854079  0.51458741  0.51095171
Direct configuration=     5
   0.47582696  0.46165377  0.49813771
   0.46642118  0.51738007  0.47499453
   0.48085153  0.51019690  0.53240681
   0.48497818  0.49670796  0.49826361
   0.53339135  0.49949340  0.48524515
   0.55854086  0.51458686  0.51095215
Direct configuration=     6
   0.47582750  0.46165301  0.49813725
   0.46642054  0.51738031  0.47499379
   0.48085409  0.51019682  0.53240555
   0.48497747  0.49670748  0.49826218
   0.53338802  0.49949500  0.48524783
   0.55854244  0.51458633  0.51095336
Direct configuration=     7
   0.47582777  0.46165150  0.49813624
   0.46641899  0.51738048  0.47499229
   0.48085908  0.51019657  0.53240291
   0.48497628  0.49670622  0.49825880
   0.53338112  0.49949812  0.48525409
   0.55854681  0.51458605  0.51095564
Direct configuration=     8
   0.47582725  0.46164870  0.49813424
   0.46641584  0.51738044  0.47498944
   0.48086818  0.51019596  0.53239780
   0.48497416  0.49670362  0.49825229
   0.53336903  0.49950398  0.48526688
   0.55855560  0.51458625  0.51095930
Direct configuration=     9
   0.47582503  0.46164374  0.49813060
   0.46640993  0.51737996  0.47498438
   0.48088410  0.51019468  0.53238847
   0.48497024  0.49669881  0.49824099
   0.53334989  0.49951465  0.48529119
   0.55857087  0.51458710  0.51096434
Direct configuration=    10
   0.47581897  0.46163446  0.49812351
   0.46639813  0.51737835  0.47497484
   0.48091301  0.51019180  0.53237035
   0.48496161  0.49668972  0.49822082
   0.53331843  0.49953500  0.48533823
   0.55859991  0.51458961  0.51097221
Direct configuration=    11
   0.47580764  0.46161988  0.49811203
   0.46637859  0.51737510  0.47495973
   0.48095531  0.51018660  0.53234162
   0.48494631  0.49667602  0.49819153
   0.53327814  0.49956928  0.48541617
   0.55864407  0.51459207  0.51097888
Direct configuration=    12
   0.47578949  0.46159924  0.49809498
   0.46634934  0.51736950  0.47493788
   0.48100793  0.51017815  0.53230131
   0.48492264  0.49665807  0.49815468
   0.53323318  0.49962022  0.48553002
   0.55870748  0.51459377  0.51098108
Direct configuration=    13
   0.47576332  0.46157250  0.49807116
   0.46630892  0.51736041  0.47490852
   0.48106186  0.51016547  0.53225080
   0.48489033  0.49663753  0.49811400
   0.53318155  0.49968388  0.48567241
   0.55880408  0.51459916  0.51098307
Direct configuration=    14
   0.47572883  0.46154228  0.49804012
   0.46625766  0.51734590  0.47487298
   0.48109803  0.51014844  0.53219754
   0.48485366  0.49661762  0.49807503
   0.53312455  0.49975187  0.48582688
   0.55894734  0.51461283  0.51098741
Direct configuration=    15
   0.47568777  0.46151525  0.49800334
   0.46619981  0.51732374  0.47483619
   0.48109345  0.51012886  0.53215472
   0.48481982  0.49660040  0.49804124
   0.53309373  0.49982936  0.48599945
   0.55911547  0.51462134  0.51096502
Direct configuration=    16
   0.47568814  0.46151684  0.49800316
   0.46620068  0.51732275  0.47483704
   0.48108642  0.51012896  0.53215773
   0.48482212  0.49660131  0.49804215
   0.53309547  0.49982812  0.48599763
   0.55911723  0.51462097  0.51096225
Direct configuration=    17
   0.47568884  0.46151995  0.49800279
   0.46620237  0.51732083  0.47483868
   0.48107264  0.51012912  0.53216350
   0.48482661  0.49660306  0.49804413
   0.53309882  0.49982573  0.48599414
   0.55912079  0.51462026  0.51095672
Direct configuration=    18
   0.47568985  0.46152447  0.49800223
   0.46620482  0.51731805  0.47484104
   0.48105268  0.51012926  0.53217162
   0.48483295  0.49660563  0.49804732
   0.53310353  0.49982228  0.48598912
   0.55912622  0.51461926  0.51094862
Direct configuration=    19
   0.47569110  0.46153023  0.49800149
   0.46620796  0.51731449  0.47484401
   0.48102738  0.51012929  0.53218147
   0.48484065  0.49660896  0.49805200
   0.53310930  0.49981790  0.48598282
   0.55913367  0.51461807  0.51093817
Direct configuration=    20
   0.47569247  0.46153700  0.49800058
   0.46621165  0.51731029  0.47484745
   0.48099780  0.51012907  0.53219234
   0.48484900  0.49661296  0.49805832
   0.53311576  0.49981284  0.48597562
   0.55914336  0.51461679  0.51092565
Direct configuration=    21
   0.47569383  0.46154449  0.49799953
   0.46621575  0.51730556  0.47485124
   0.48096530  0.51012846  0.53220336
   0.48485713  0.49661748  0.49806636
   0.53312242  0.49980746  0.48596825
   0.55915562  0.51461551  0.51091121
Direct configuration=    22
   0.47569489  0.46155304  0.49799823
   0.46622033  0.51729990  0.47485559
   0.48092820  0.51012719  0.53221452
   0.48486464  0.49662277  0.49807690
   0.53312924  0.49980190  0.48596161
   0.55917275  0.51461415  0.51089312
Direct configuration=    23
   0.47569486  0.46156168  0.49799672
   0.46622458  0.51729361  0.47486004
   0.48089029  0.51012520  0.53222421
   0.48486972  0.49662802  0.49808876
   0.53313463  0.49979769  0.48595901
   0.55919597  0.51461275  0.51087122
Direct configuration=    24
   0.47569466  0.46156154  0.49799671
   0.46622442  0.51729361  0.47485998
   0.48089072  0.51012516  0.53222395
   0.48486940  0.49662789  0.49808862
   0.53313427  0.49979799  0.48595975
   0.55919658  0.51461276  0.51087095
Direct configuration=    25
   0.47569414  0.46156125  0.49799666
   0.46622396  0.51729357  0.47485984
   0.48089165  0.51012505  0.53222336
   0.48486872  0.49662758  0.49808826
   0.53313341  0.49979868  0.48596150
   0.55919817  0.51461282  0.51087035
Direct configuration=    26
   0.47569315  0.46156077  0.49799653
   0.46622307  0.51729343  0.47485960
   0.48089312  0.51012486  0.53222234
   0.48486767  0.49662704  0.49808757
   0.53313192  0.49979988  0.48596455
   0.55920113  0.51461297  0.51086937
Direct configuration=    27
   0.47569156  0.46156008  0.49799628
   0.46622159  0.51729315  0.47485922
   0.48089518  0.51012454  0.53222083
   0.48486624  0.49662625  0.49808648
   0.53312967  0.49980171  0.48596922
   0.55920583  0.51461322  0.51086793
Direct configuration=    28
   0.47568940  0.46155919  0.49799591
   0.46621954  0.51729272  0.47485872
   0.48089776  0.51012411  0.53221885
   0.48486445  0.49662520  0.49808499
   0.53312669  0.49980416  0.48597548
   0.55921222  0.51461357  0.51086601
Direct configuration=    29
   0.47568667  0.46155810  0.49799542
   0.46621692  0.51729214  0.47485809
   0.48090082  0.51012356  0.53221643
   0.48486235  0.49662393  0.49808314
   0.53312308  0.49980725  0.48598333
   0.55922022  0.51461397  0.51086356
Direct configuration=    30
   0.47568301  0.46155666  0.49799473
   0.46621339  0.51729135  0.47485723
   0.48090468  0.51012282  0.53221329
   0.48485971  0.49662228  0.49808070
   0.53311843  0.49981140  0.48599386
   0.55923084  0.51461444  0.51086015
Direct configuration=    31
   0.47567824  0.46155480  0.49799380
   0.46620874  0.51729029  0.47485609
   0.48090937  0.51012185  0.53220933
   0.48485649  0.49662021  0.49807760
   0.53311264  0.49981686  0.48600767
   0.55924458  0.51461494  0.51085548
Direct configuration=    32
   0.47567222  0.46155246  0.49799255
   0.46620282  0.51728889  0.47485460
   0.48091487  0.51012061  0.53220447
   0.48485269  0.49661769  0.49807379
   0.53310549  0.49982389  0.48602536
   0.55926196  0.51461541  0.51084919
Direct configuration=    33
   0.47566481  0.46154960  0.49799090
   0.46619546  0.51728710  0.47485269
   0.48092100  0.51011906  0.53219872
   0.48484834  0.49661469  0.49806928
   0.53309683  0.49983269  0.48604748
   0.55928362  0.51461581  0.51084089
Direct configuration=    34
   0.47565594  0.46154621  0.49798876
   0.46618656  0.51728481  0.47485032
   0.48092731  0.51011715  0.53219218
   0.48484354  0.49661126  0.49806415
   0.53308636  0.49984337  0.48607433
   0.55931036  0.51461615  0.51083022
Direct configuration=    35
   0.47564569  0.46154240  0.49798600
   0.46617616  0.51728188  0.47484746
   0.48093290  0.51011485  0.53218518
   0.48483845  0.49660758  0.49805863
   0.53307379  0.49985576  0.48610584
   0.55934307  0.51461648  0.51081686
Direct configuration=    36
   0.47563448  0.46153850  0.49798246
   0.46616462  0.51727809  0.47484423
   0.48093613  0.51011213  0.53217837
   0.48483325  0.49660395  0.49805318
   0.53305919  0.49986955  0.48614147
   0.55938240  0.51461672  0.51080026
Direct configuration=    37
   0.47562339  0.46153521  0.49797794
   0.46615297  0.51727314  0.47484084
   0.48093440  0.51010899  0.53217286
   0.48482800  0.49660086  0.49804860
   0.53304376  0.49988445  0.48618041
   0.55942753  0.51461631  0.51077930
Direct configuration=    38
   0.47561426  0.46153348  0.49797253
   0.46614300  0.51726701  0.47483776
   0.48092503  0.51010554  0.53217008
   0.48482278  0.49659890  0.49804617
   0.53302938  0.49989920  0.48621930
   0.55947560  0.51461483  0.51075413
Direct configuration=    39
   0.47561454  0.46153363  0.49797251
   0.46614326  0.51726698  0.47483783
   0.48092442  0.51010554  0.53217035
   0.48482282  0.49659901  0.49804639
   0.53302949  0.49989900  0.48621882
   0.55947552  0.51461480  0.51075407
Direct configuration=    40
   0.47561511  0.46153393  0.49797246
   0.46614375  0.51726689  0.47483794
   0.48092318  0.51010553  0.53217090
   0.48482292  0.49659924  0.49804681
   0.53302965  0.49989864  0.48621791
   0.55947545  0.51461473  0.51075394
Direct configuration=    41
   0.47561594  0.46153437  0.49797236
   0.46614446  0.51726672  0.47483812
   0.48092131  0.51010548  0.53217168
   0.48482305  0.49659956  0.49804743
   0.53302982  0.49989822  0.48621667
   0.55947548  0.51461460  0.51075371
Direct configuration=    42
   0.47561703  0.46153491  0.49797217
   0.46614530  0.51726645  0.47483832
   0.48091882  0.51010539  0.53217268
   0.48482322  0.49659997  0.49804825
   0.53302996  0.49989788  0.48621527
   0.55947573  0.51461435  0.51075327
Direct configuration=    43
   0.47561835  0.46153552  0.49797185
   0.46614621  0.51726605  0.47483853
   0.48091572  0.51010520  0.53217385
   0.48482338  0.49660044  0.49804925
   0.53303004  0.49989783  0.48621389
   0.55947636  0.51461391  0.51075259
Direct configuration=    44
   0.47561985  0.46153614  0.49797141
   0.46614713  0.51726553  0.47483873
   0.48091210  0.51010493  0.53217516
   0.48482352  0.49660097  0.49805039
   0.53303010  0.49989811  0.48621267
   0.55947736  0.51461327  0.51075160
Direct configuration=    45
   0.47562168  0.46153680  0.49797079
   0.46614810  0.51726483  0.47483892
   0.48090758  0.51010453  0.53217672
   0.48482366  0.49660160  0.49805176
   0.53303013  0.49989887  0.48621168
   0.55947891  0.51461231  0.51075009
Direct configuration=    46
   0.47562380  0.46153745  0.49796994
   0.46614903  0.51726395  0.47483906
   0.48090213  0.51010397  0.53217852
   0.48482377  0.49660233  0.49805332
   0.53303006  0.49990025  0.48621119
   0.55948128  0.51461100  0.51074793
Direct configuration=    47
   0.47562617  0.46153798  0.49796882
   0.46614979  0.51726287  0.47483908
   0.48089578  0.51010323  0.53218049
   0.48482382  0.49660316  0.49805499
   0.53302963  0.49990237  0.48621147
   0.55948487  0.51460934  0.51074510
Direct configuration=    48
   0.47562866  0.46153828  0.49796741
   0.46615017  0.51726162  0.47483893
   0.48088869  0.51010228  0.53218254
   0.48482377  0.49660402  0.49805660
   0.53302849  0.49990531  0.48621287
   0.55949027  0.51460744  0.51074162
Direct configuration=    49
   0.47563111  0.46153822  0.49796566
   0.46614994  0.51726020  0.47483850
   0.48088114  0.51010109  0.53218448
   0.48482348  0.49660484  0.49805795
   0.53302627  0.49990920  0.48621593
   0.55949812  0.51460539  0.51073745
Direct configuration=    50
   0.47563324  0.46153765  0.49796354
   0.46614873  0.51725862  0.47483770
   0.48087350  0.51009961  0.53218604
   0.48482275  0.49660546  0.49805876
   0.53302279  0.49991442  0.48622157
   0.55950905  0.51460319  0.51073235
Direct configuration=    51
   0.47563473  0.46153645  0.49796098
   0.46614614  0.51725685  0.47483641
   0.48086620  0.51009776  0.53218687
   0.48482123  0.49660571  0.49805872
   0.53301800  0.49992140  0.48623113
   0.55952375  0.51460078  0.51072585
Direct configuration=    52
   0.47563516  0.46153449  0.49795792
   0.46614167  0.51725487  0.47483451
   0.48085976  0.51009547  0.53218649
   0.48481857  0.49660535  0.49805751
   0.53301168  0.49993058  0.48624601
   0.55954321  0.51459818  0.51071752
Direct configuration=    53
   0.47563420  0.46153166  0.49795426
   0.46613493  0.51725257  0.47483189
   0.48085471  0.51009258  0.53218438
   0.48481453  0.49660420  0.49805488
   0.53300294  0.49994237  0.48626728
   0.55956875  0.51459557  0.51070727
Direct configuration=    54
   0.47563167  0.46152795  0.49795007
   0.46612571  0.51724992  0.47482865
   0.48085140  0.51008901  0.53218023
   0.48480905  0.49660226  0.49805087
   0.53299171  0.49995671  0.48629473
   0.55960052  0.51459309  0.51069541
Direct configuration=    55
   0.47562790  0.46152357  0.49794544
   0.46611435  0.51724677  0.47482517
   0.48085004  0.51008474  0.53217405
   0.48480160  0.49660000  0.49804526
   0.53297892  0.49997335  0.48632808
   0.55963725  0.51459053  0.51068197
Direct configuration=    56
   0.47562440  0.46151980  0.49794071
   0.46610126  0.51724276  0.47482270
   0.48084929  0.51007975  0.53216742
   0.48479715  0.49659799  0.49803710
   0.53296216  0.49999068  0.48636177
   0.55967580  0.51458796  0.51067026
Direct configuration=    57
   0.47562457  0.46151991  0.49794070
   0.46610143  0.51724278  0.47482269
   0.48084905  0.51007975  0.53216751
   0.48479704  0.49659797  0.49803743
   0.53296342  0.49999104  0.48636196
   0.55967455  0.51458749  0.51066967
Direct configuration=    58
   0.47562498  0.46152005  0.49794059
   0.46610165  0.51724277  0.47482270
   0.48084857  0.51007968  0.53216767
   0.48479688  0.49659790  0.49803796
   0.53296515  0.49999178  0.48636194
   0.55967282  0.51458677  0.51066911
Direct configuration=    59
   0.47562505  0.46152004  0.49794055
   0.46610163  0.51724274  0.47482271
   0.48084853  0.51007963  0.53216767
   0.48479688  0.49659789  0.49803797
   0.53296501  0.49999185  0.48636179
   0.55967295  0.51458679  0.51066928
Direct configuration=    60
   0.47562519  0.46151999  0.49794043
   0.46610152  0.51724265  0.47482273
   0.48084846  0.51007951  0.53216764
   0.48479687  0.49659784  0.49803793
   0.53296469  0.49999214  0.48636160
   0.55967333  0.51458681  0.51066963
Direct configuration=    61
   0.47562539  0.46151991  0.49794022
   0.46610129  0.51724249  0.47482276
   0.48084834  0.51007930  0.53216757
   0.48479685  0.49659775  0.49803785
   0.53296421  0.49999268  0.48636143
   0.55967397  0.51458681  0.51067012
Direct configuration=    62
   0.47562564  0.46151978  0.49793992
   0.46610095  0.51724226  0.47482279
   0.48084820  0.51007900  0.53216746
   0.48479679  0.49659762  0.49803772
   0.53296363  0.49999352  0.48636138
   0.55967486  0.51458677  0.51067068
Direct configuration=    63
   0.47562591  0.46151959  0.49793952
   0.46610046  0.51724194  0.47482282
   0.48084801  0.51007860  0.53216730
   0.48479668  0.49659745  0.49803753
   0.53296300  0.49999470  0.48636157
   0.55967600  0.51458666  0.51067122
Direct configuration=    64
   0.47562620  0.46151934  0.49793901
   0.46609980  0.51724154  0.47482284
   0.48084777  0.51007811  0.53216708
   0.48479652  0.49659725  0.49803726
   0.53296237  0.49999628  0.48636209
   0.55967739  0.51458644  0.51067168
Direct configuration=    65
   0.47562651  0.46151896  0.49793829
   0.46609885  0.51724098  0.47482284
   0.48084747  0.51007742  0.53216677
   0.48479626  0.49659697  0.49803687
   0.53296169  0.49999853  0.48636317
   0.55967927  0.51458608  0.51067201
Direct configuration=    66
   0.47562685  0.46151842  0.49793731
   0.46609751  0.51724022  0.47482280
   0.48084705  0.51007650  0.53216632
   0.48479588  0.49659661  0.49803631
   0.53296093  0.50000167  0.48636508
   0.55968184  0.51458553  0.51067214
Direct configuration=    67
   0.47562725  0.46151767  0.49793596
   0.46609565  0.51723919  0.47482273
   0.48084649  0.51007525  0.53216573
   0.48479537  0.49659615  0.49803554
   0.53296007  0.50000596  0.48636796
   0.55968523  0.51458474  0.51067204
Direct configuration=    68
   0.47562781  0.46151662  0.49793413
   0.46609312  0.51723782  0.47482264
   0.48084572  0.51007356  0.53216497
   0.48479474  0.49659561  0.49803451
   0.53295902  0.50001163  0.48637191
   0.55968964  0.51458371  0.51067179
Direct configuration=    69
   0.47562871  0.46151522  0.49793167
   0.46608974  0.51723602  0.47482256
   0.48084464  0.51007127  0.53216406
   0.48479405  0.49659502  0.49803319
   0.53295752  0.50001892  0.48637686
   0.55969539  0.51458250  0.51067162
Direct configuration=    70
   0.47563007  0.46151342  0.49792847
   0.46608538  0.51723373  0.47482247
   0.48084314  0.51006828  0.53216299
   0.48479333  0.49659441  0.49803155
   0.53295525  0.50002786  0.48638274
   0.55970289  0.51458125  0.51067175
Direct configuration=    71
   0.47563210  0.46151121  0.49792442
   0.46607994  0.51723091  0.47482236
   0.48084111  0.51006448  0.53216178
   0.48479262  0.49659382  0.49802956
   0.53295188  0.50003851  0.48638954
   0.55971240  0.51458002  0.51067229
Direct configuration=    72
   0.47563503  0.46150867  0.49791939
   0.46607331  0.51722753  0.47482220
   0.48083835  0.51005980  0.53216046
   0.48479185  0.49659329  0.49802724
   0.53294770  0.50005093  0.48639780
   0.55972381  0.51457872  0.51067286
Direct configuration=    73
   0.47563914  0.46150594  0.49791342
   0.46606555  0.51722361  0.47482197
   0.48083468  0.51005425  0.53215915
   0.48479061  0.49659306  0.49802453
   0.53294366  0.50006508  0.48640838
   0.55973641  0.51457701  0.51067250
Direct configuration=    74
   0.47564500  0.46150353  0.49790658
   0.46605691  0.51721946  0.47482151
   0.48082965  0.51004805  0.53215811
   0.48478871  0.49659320  0.49802169
   0.53293978  0.50007948  0.48642115
   0.55975001  0.51457523  0.51067092
Direct configuration=    75
   0.47564510  0.46150358  0.49790658
   0.46605694  0.51721951  0.47482148
   0.48082957  0.51004807  0.53215815
   0.48478871  0.49659321  0.49802173
   0.53293964  0.50007924  0.48642104
   0.55975010  0.51457534  0.51067098
Direct configuration=    76
   0.47564530  0.46150368  0.49790658
   0.46605699  0.51721959  0.47482143
   0.48082942  0.51004811  0.53215823
   0.48478870  0.49659325  0.49802180
   0.53293938  0.50007878  0.48642087
   0.55975027  0.51457554  0.51067105
Direct configuration=    77
   0.47564558  0.46150383  0.49790657
   0.46605705  0.51721970  0.47482133
   0.48082919  0.51004816  0.53215832
   0.48478867  0.49659330  0.49802189
   0.53293905  0.50007816  0.48642076
   0.55975052  0.51457579  0.51067109
Direct configuration=    78
   0.47564592  0.46150400  0.49790654
   0.46605710  0.51721984  0.47482120
   0.48082891  0.51004822  0.53215842
   0.48478860  0.49659336  0.49802198
   0.53293870  0.50007746  0.48642084
   0.55975082  0.51457607  0.51067098
Direct configuration=    79
   0.47564629  0.46150417  0.49790648
   0.46605711  0.51721999  0.47482103
   0.48082860  0.51004827  0.53215849
   0.48478847  0.49659342  0.49802204
   0.53293839  0.50007677  0.48642124
   0.55975119  0.51457634  0.51067068
Direct configuration=    80
   0.47564665  0.46150431  0.49790639
   0.46605707  0.51722013  0.47482082
   0.48082827  0.51004830  0.53215852
   0.48478828  0.49659347  0.49802204
   0.53293810  0.50007617  0.48642203
   0.55975168  0.51457657  0.51067017
Direct configuration=    81
   0.47564698  0.46150441  0.49790622
   0.46605693  0.51722026  0.47482053
   0.48082791  0.51004830  0.53215847
   0.48478797  0.49659351  0.49802197
   0.53293777  0.50007567  0.48642342
   0.55975250  0.51457679  0.51066936
Direct configuration=    82
   0.47564725  0.46150443  0.49790594
   0.46605663  0.51722035  0.47482014
   0.48082750  0.51004824  0.53215831
   0.48478749  0.49659351  0.49802176
   0.53293726  0.50007536  0.48642561
   0.55975393  0.51457706  0.51066820
Direct configuration=    83
   0.47564737  0.46150431  0.49790552
   0.46605610  0.51722038  0.47481962
   0.48082703  0.51004809  0.53215798
   0.48478681  0.49659345  0.49802139
   0.53293640  0.50007531  0.48642879
   0.55975635  0.51457741  0.51066667
Direct configuration=    84
   0.47564727  0.46150400  0.49790493
   0.46605532  0.51722032  0.47481894
   0.48082646  0.51004783  0.53215745
   0.48478594  0.49659331  0.49802083
   0.53293506  0.50007560  0.48643304
   0.55976002  0.51457789  0.51066477
Direct configuration=    85
   0.47564687  0.46150347  0.49790412
   0.46605425  0.51722014  0.47481809
   0.48082573  0.51004744  0.53215669
   0.48478487  0.49659308  0.49802011
   0.53293314  0.50007631  0.48643850
   0.55976520  0.51457851  0.51066245
Direct configuration=    86
   0.47564608  0.46150267  0.49790305
   0.46605286  0.51721979  0.47481702
   0.48082474  0.51004688  0.53215568
   0.48478364  0.49659270  0.49801925
   0.53293079  0.50007772  0.48644544
   0.55977196  0.51457919  0.51065953
Direct configuration=    87
   0.47564478  0.46150159  0.49790167
   0.46605117  0.51721921  0.47481574
   0.48082330  0.51004611  0.53215443
   0.48478228  0.49659209  0.49801833
   0.53292821  0.50008017  0.48645399
   0.55978032  0.51457977  0.51065580
Direct configuration=    88
   0.47564294  0.46150030  0.49789997
   0.46604929  0.51721827  0.47481431
   0.48082112  0.51004508  0.53215309
   0.48478090  0.49659116  0.49801745
   0.53292537  0.50008388  0.48646380
   0.55979044  0.51458025  0.51065134
Direct configuration=    89
   0.47564068  0.46149898  0.49789794
   0.46604750  0.51721676  0.47481301
   0.48081775  0.51004372  0.53215199
   0.48477971  0.49658993  0.49801671
   0.53292195  0.50008880  0.48647360
   0.55980248  0.51458075  0.51064671
Direct configuration=    90
   0.47563857  0.46149786  0.49789567
   0.46604617  0.51721454  0.47481221
   0.48081290  0.51004190  0.53215157
   0.48477874  0.49658877  0.49801630
   0.53291942  0.50009522  0.48648280
   0.55981425  0.51458066  0.51064142
Direct configuration=    91
   0.47563868  0.46149788  0.49789566
   0.46604622  0.51721452  0.47481226
   0.48081282  0.51004186  0.53215165
   0.48477880  0.49658882  0.49801635
   0.53291942  0.50009519  0.48648250
   0.55981412  0.51458067  0.51064154
Direct configuration=    92
   0.47563891  0.46149792  0.49789562
   0.46604630  0.51721447  0.47481237
   0.48081264  0.51004174  0.53215179
   0.48477890  0.49658889  0.49801644
   0.53291941  0.50009524  0.48648196
   0.55981389  0.51458070  0.51064178
Direct configuration=    93
   0.47563931  0.46149792  0.49789550
   0.46604637  0.51721435  0.47481253
   0.48081232  0.51004147  0.53215201
   0.48477905  0.49658897  0.49801657
   0.53291941  0.50009551  0.48648127
   0.55981360  0.51458072  0.51064208
Direct configuration=    94
   0.47563992  0.46149786  0.49789523
   0.46604639  0.51721417  0.47481276
   0.48081185  0.51004100  0.53215229
   0.48477920  0.49658900  0.49801670
   0.53291941  0.50009617  0.48648056
   0.55981329  0.51458075  0.51064243
Direct configuration=    95
   0.47564078  0.46149767  0.49789474
   0.46604627  0.51721387  0.47481307
   0.48081120  0.51004021  0.53215262
   0.48477935  0.49658896  0.49801680
   0.53291939  0.50009743  0.48647991
   0.55981306  0.51458080  0.51064283
Direct configuration=    96
   0.47564200  0.46149729  0.49789393
   0.46604595  0.51721345  0.47481347
   0.48081035  0.51003899  0.53215301
   0.48477948  0.49658880  0.49801683
   0.53291925  0.50009951  0.48647941
   0.55981303  0.51458091  0.51064331
Direct configuration=    97
   0.47564391  0.46149651  0.49789250
   0.46604520  0.51721275  0.47481406
   0.48080913  0.51003692  0.53215349
   0.48477959  0.49658845  0.49801675
   0.53291886  0.50010312  0.48647911
   0.55981337  0.51458120  0.51064406
Direct configuration=    98
   0.47564695  0.46149509  0.49789004
   0.46604369  0.51721165  0.47481494
   0.48080740  0.51003349  0.53215411
   0.48477963  0.49658779  0.49801643
   0.53291801  0.50010910  0.48647920
   0.55981437  0.51458182  0.51064524
Direct configuration=    99
   0.47565129  0.46149288  0.49788632
   0.46604116  0.51721006  0.47481614
   0.48080510  0.51002845  0.53215482
   0.48477956  0.49658681  0.49801578
   0.53291651  0.50011785  0.48648005
   0.55981642  0.51458290  0.51064685
Direct configuration=   100
   0.47565703  0.46148969  0.49788108
   0.46603725  0.51720787  0.47481762
   0.48080216  0.51002155  0.53215557
   0.48477928  0.49658548  0.49801467
   0.53291433  0.50012981  0.48648227
   0.55982001  0.51458456  0.51064875
Direct configuration=   101
   0.47566421  0.46148545  0.49787411
   0.46603159  0.51720500  0.47481930
   0.48079856  0.51001267  0.53215621
   0.48477868  0.49658387  0.49801294
   0.53291132  0.50014500  0.48648677
   0.55982571  0.51458696  0.51065063
Direct configuration=   102
   0.47567264  0.46148021  0.49786531
   0.46602378  0.51720143  0.47482099
   0.48079427  0.51000194  0.53215657
   0.48477762  0.49658204  0.49801047
   0.53290746  0.50016300  0.48649460
   0.55983428  0.51459032  0.51065202
Direct configuration=   103
   0.47568184  0.46147437  0.49785483
   0.46601368  0.51719724  0.47482234
   0.48078932  0.50998997  0.53215641
   0.48477600  0.49658005  0.49800721
   0.53290262  0.50018237  0.48650676
   0.55984659  0.51459495  0.51065240
Direct configuration=   104
   0.47569095  0.46146897  0.49784348
   0.46600198  0.51719280  0.47482294
   0.48078375  0.50997830  0.53215563
   0.48477397  0.49657813  0.49800349
   0.53289705  0.50019970  0.48652342
   0.55986236  0.51460104  0.51065100
Direct configuration=   105
   0.47569077  0.46146914  0.49784358
   0.46600207  0.51719283  0.47482283
   0.48078372  0.50997858  0.53215558
   0.48477396  0.49657818  0.49800352
   0.53289714  0.50019913  0.48652375
   0.55986239  0.51460108  0.51065070
Direct configuration=   106
   0.47569042  0.46146946  0.49784376
   0.46600225  0.51719290  0.47482263
   0.48078367  0.50997913  0.53215546
   0.48477394  0.49657827  0.49800358
   0.53289729  0.50019799  0.48652440
   0.55986249  0.51460120  0.51065013
Direct configuration=   107
   0.47568989  0.46146993  0.49784402
   0.46600248  0.51719300  0.47482233
   0.48078361  0.50997993  0.53215527
   0.48477392  0.49657841  0.49800364
   0.53289740  0.50019626  0.48652533
   0.55986275  0.51460143  0.51064938
Direct configuration=   108
   0.47568918  0.46147049  0.49784433
   0.46600275  0.51719311  0.47482193
   0.48078359  0.50998095  0.53215500
   0.48477387  0.49657857  0.49800369
   0.53289742  0.50019400  0.48652652
   0.55986325  0.51460182  0.51064849
Direct configuration=   109
   0.47568827  0.46147112  0.49784467
   0.46600302  0.51719323  0.47482144
   0.48078363  0.50998216  0.53215463
   0.48477379  0.49657872  0.49800370
   0.53289728  0.50019133  0.48652805
   0.55986407  0.51460237  0.51064747
Direct configuration=   110
   0.47568713  0.46147174  0.49784502
   0.46600327  0.51719334  0.47482086
   0.48078374  0.50998349  0.53215411
   0.48477364  0.49657884  0.49800365
   0.53289701  0.50018849  0.48653005
   0.55986526  0.51460305  0.51064626
Direct configuration=   111
   0.47568554  0.46147235  0.49784539
   0.46600350  0.51719340  0.47482012
   0.48078396  0.50998500  0.53215337
   0.48477336  0.49657885  0.49800350
   0.53289660  0.50018546  0.48653295
   0.55986711  0.51460390  0.51064464
Direct configuration=   112
   0.47568338  0.46147283  0.49784571
   0.46600367  0.51719335  0.47481917
   0.48078421  0.50998660  0.53215234
   0.48477287  0.49657867  0.49800321
   0.53289607  0.50018263  0.48653707
   0.55986986  0.51460487  0.51064245
Direct configuration=   113
   0.47568054  0.46147309  0.49784599
   0.46600378  0.51719316  0.47481801
   0.48078445  0.50998818  0.53215102
   0.48477214  0.49657824  0.49800280
   0.53289532  0.50018037  0.48654254
   0.55987383  0.51460591  0.51063961
Direct configuration=   114
   0.47567696  0.46147300  0.49784617
   0.46600381  0.51719278  0.47481660
   0.48078452  0.50998960  0.53214944
   0.48477120  0.49657750  0.49800226
   0.53289402  0.50017903  0.48654925
   0.55987954  0.51460704  0.51063623
Direct configuration=   115
   0.47567269  0.46147247  0.49784621
   0.46600374  0.51719213  0.47481498
   0.48078421  0.50999064  0.53214769
   0.48477008  0.49657641  0.49800162
   0.53289189  0.50017911  0.48655710
   0.55988746  0.51460818  0.51063236
Direct configuration=   116
   0.47566788  0.46147147  0.49784600
   0.46600344  0.51719116  0.47481317
   0.48078322  0.50999102  0.53214590
   0.48476877  0.49657502  0.49800085
   0.53288920  0.50018129  0.48656649
   0.55989754  0.51460899  0.51062755
Direct configuration=   117
   0.47566306  0.46147007  0.49784536
   0.46600281  0.51718976  0.47481131