   6   6   0   0
  0.4500000E+04  0.3000000E-08  0.3000000E-08  0.3000000E-08  0.0000000E+00
  1.000000000000000E-004
  CAR 
 unknown system                          
      2.02326789    -25.88720612  301     -6.16344107      1.00000000
    -25.887  0.0000E+00  0.0000E+00
    -25.794  0.0000E+00  0.0000E+00
    -25.701  0.0000E+00  0.0000E+00
    -25.608  0.0000E+00  0.0000E+00
    -25.515  0.0000E+00  0.0000E+00
    -25.422  0.0000E+00  0.0000E+00
    -25.329  0.0000E+00  0.0000E+00
    -25.236  0.0000E+00  0.0000E+00
    -25.143  0.0000E+00  0.0000E+00
    -25.050  0.7956E-17  0.7401E-18
    -24.957  0.1396E-14  0.1306E-15
    -24.864  0.1776E-12  0.1665E-13
    -24.771  0.1473E-10  0.1387E-11
    -24.678  0.7986E-09  0.7569E-10
    -24.585  0.2833E-07  0.2711E-08
    -24.492  0.6579E-06  0.6391E-07
    -24.399  0.1001E-04  0.9956E-06
    -24.306  0.1000E-03  0.1030E-04
    -24.213  0.6563E-03  0.7136E-04
    -24.120  0.2831E-02  0.3347E-03
    -24.027  0.8033E-02  0.1082E-02
    -23.933  0.1501E-01  0.2478E-02
    -23.840  0.1847E-01  0.4197E-02
    -23.747  0.1498E-01  0.5590E-02
    -23.654  0.7997E-02  0.6334E-02
    -23.561  0.2812E-02  0.6596E-02
    -23.468  0.6504E-03  0.6656E-02
    -23.375  0.9891E-04  0.6666E-02
    -23.282  0.9880E-05  0.6667E-02
    -23.189  0.6475E-06  0.6667E-02
    -23.096  0.2782E-07  0.6667E-02
    -23.003  0.7825E-09  0.6667E-02
    -22.910  0.1440E-10  0.6667E-02
    -22.817  0.1732E-12  0.6667E-02
    -22.724  0.1360E-14  0.6667E-02
    -22.631  0.7956E-17  0.6667E-02
    -22.538  0.0000E+00  0.6667E-02
    -22.445  0.0000E+00  0.6667E-02
    -22.352  0.0000E+00  0.6667E-02
    -22.259  0.0000E+00  0.6667E-02
    -22.166  0.0000E+00  0.6667E-02
    -22.073  0.0000E+00  0.6667E-02
    -21.980  0.0000E+00  0.6667E-02
    -21.887  0.0000E+00  0.6667E-02
    -21.794  0.0000E+00  0.6667E-02
    -21.701  0.0000E+00  0.6667E-02
    -21.608  0.0000E+00  0.6667E-02
    -21.515  0.0000E+00  0.6667E-02
    -21.422  0.0000E+00  0.6667E-02
    -21.328  0.0000E+00  0.6667E-02
    -21.235  0.0000E+00  0.6667E-02
    -21.142  0.0000E+00  0.6667E-02
    -21.049  0.0000E+00  0.6667E-02
    -20.956  0.0000E+00  0.6667E-02
    -20.863  0.0000E+00  0.6667E-02
    -20.770  0.0000E+00  0.6667E-02
    -20.677  0.0000E+00  0.6667E-02
    -20.584  0.0000E+00  0.6667E-02
    -20.491  0.0000E+00  0.6667E-02
    -20.398  0.2466E-15  0.6667E-02
    -20.305  0.3603E-13  0.6667E-02
    -20.212  0.3454E-11  0.6667E-02
    -20.119  0.2163E-09  0.6667E-02
    -20.026  0.8858E-08  0.6667E-02
    -19.933  0.2374E-06  0.6667E-02
    -19.840  0.4171E-05  0.6667E-02
    -19.747  0.4805E-04  0.6672E-02
    -19.654  0.3635E-03  0.6705E-02
    -19.561  0.1807E-02  0.6874E-02
    -19.468  0.5911E-02  0.7423E-02
    -19.375  0.1272E-01  0.8607E-02
    -19.282  0.1804E-01  0.1029E-01
    -19.189  0.1685E-01  0.1185E-01
    -19.096  0.1037E-01  0.1282E-01
    -19.003  0.4200E-02  0.1321E-01
    -18.910  0.1120E-02  0.1331E-01
    -18.817  0.1963E-03  0.1333E-01
    -18.724  0.2262E-04  0.1333E-01
    -18.630  0.1710E-05  0.1333E-01
    -18.537  0.8480E-07  0.1333E-01
    -18.444  0.2754E-08  0.1333E-01
    -18.351  0.5853E-10  0.1333E-01
    -18.258  0.8132E-12  0.1333E-01
    -18.165  0.7375E-14  0.1333E-01
    -18.072  0.4773E-16  0.1333E-01
    -17.979  0.0000E+00  0.1333E-01
    -17.886  0.0000E+00  0.1333E-01
    -17.793  0.0000E+00  0.1333E-01
    -17.700  0.0000E+00  0.1333E-01
    -17.607  0.0000E+00  0.1333E-01
    -17.514  0.0000E+00  0.1333E-01
    -17.421  0.0000E+00  0.1333E-01
    -17.328  0.0000E+00  0.1333E-01
    -17.235  0.0000E+00  0.1333E-01
    -17.142  0.0000E+00  0.1333E-01
    -17.049  0.0000E+00  0.1333E-01
    -16.956  0.0000E+00  0.1333E-01
    -16.863  0.0000E+00  0.1333E-01
    -16.770  0.0000E+00  0.1333E-01
    -16.677  0.0000E+00  0.1333E-01
    -16.584  0.0000E+00  0.1333E-01
    -16.491  0.0000E+00  0.1333E-01
    -16.398  0.0000E+00  0.1333E-01
    -16.305  0.0000E+00  0.1333E-01
    -16.212  0.0000E+00  0.1333E-01
    -16.119  0.0000E+00  0.1333E-01
    -16.026  0.0000E+00  0.1333E-01
    -15.932  0.0000E+00  0.1333E-01
    -15.839  0.0000E+00  0.1333E-01
    -15.746  0.0000E+00  0.1333E-01
    -15.653  0.0000E+00  0.1333E-01
    -15.560  0.0000E+00  0.1333E-01
    -15.467  0.0000E+00  0.1333E-01
    -15.374  0.0000E+00  0.1333E-01
    -15.281  0.0000E+00  0.1333E-01
    -15.188  0.0000E+00  0.1333E-01
    -15.095  0.0000E+00  0.1333E-01
    -15.002  0.8751E-16  0.1333E-01
    -14.909  0.1376E-13  0.1333E-01
    -14.816  0.1437E-11  0.1333E-01
    -14.723  0.9793E-10  0.1333E-01
    -14.630  0.4365E-08  0.1333E-01
    -14.537  0.1273E-06  0.1333E-01
    -14.444  0.2434E-05  0.1333E-01
    -14.351  0.3050E-04  0.1334E-01
    -14.258  0.2509E-03  0.1336E-01
    -14.165  0.1357E-02  0.1349E-01
    -14.072  0.4824E-02  0.1393E-01
    -13.979  0.1129E-01  0.1498E-01
    -13.886  0.1740E-01  0.1660E-01
    -13.793  0.1766E-01  0.1825E-01
    -13.700  0.1181E-01  0.1935E-01
    -13.607  0.5201E-02  0.1983E-01
    -13.514  0.1508E-02  0.1997E-01
    -13.421  0.2875E-03  0.2000E-01
    -13.327  0.3602E-04  0.2000E-01
    -13.234  0.2963E-05  0.2000E-01
    -13.141  0.1598E-06  0.2000E-01
    -13.048  0.5649E-08  0.2000E-01
    -12.955  0.1307E-09  0.2000E-01
    -12.862  0.1980E-11  0.2000E-01
    -12.769  0.4349E-12  0.2000E-01
    -12.676  0.3396E-10  0.2000E-01
    -12.583  0.1815E-08  0.2000E-01
    -12.490  0.6345E-07  0.2000E-01
    -12.397  0.1453E-05  0.2000E-01
    -12.304  0.2180E-04  0.2000E-01
    -12.211  0.2147E-03  0.2002E-01
    -12.118  0.1388E-02  0.2015E-01
    -12.025  0.5904E-02  0.2070E-01
    -11.932  0.1652E-01  0.2224E-01
    -11.839  0.3044E-01  0.2507E-01
    -11.746  0.3693E-01  0.2851E-01
    -11.653  0.2953E-01  0.3125E-01
    -11.560  0.1555E-01  0.3270E-01
    -11.467  0.5389E-02  0.3320E-01
    -11.374  0.1229E-02  0.3331E-01
    -11.281  0.1843E-03  0.3333E-01
    -11.188  0.1815E-04  0.3333E-01
    -11.095  0.1173E-05  0.3333E-01
    -11.002  0.4969E-07  0.3333E-01
    -10.909  0.1378E-08  0.3333E-01
    -10.816  0.2500E-10  0.3333E-01
    -10.723  0.2964E-12  0.3333E-01
    -10.629  0.2299E-14  0.3333E-01
    -10.536  0.7956E-17  0.3333E-01
    -10.443  0.0000E+00  0.3333E-01
    -10.350  0.0000E+00  0.3333E-01
    -10.257  0.0000E+00  0.3333E-01
    -10.164  0.0000E+00  0.3333E-01
    -10.071  0.0000E+00  0.3333E-01
     -9.978  0.0000E+00  0.3333E-01
     -9.885  0.0000E+00  0.3333E-01
     -9.792  0.0000E+00  0.3333E-01
     -9.699  0.0000E+00  0.3333E-01
     -9.606  0.0000E+00  0.3333E-01
     -9.513  0.0000E+00  0.3333E-01
     -9.420  0.2029E-15  0.3333E-01
     -9.327  0.3184E-13  0.3333E-01
     -9.234  0.3280E-11  0.3333E-01
     -9.141  0.2208E-09  0.3333E-01
     -9.048  0.9718E-08  0.3333E-01
     -8.955  0.2799E-06  0.3333E-01
     -8.862  0.5282E-05  0.3333E-01
     -8.769  0.6537E-04  0.3334E-01
     -8.676  0.5311E-03  0.3339E-01
     -8.583  0.2835E-02  0.3365E-01
     -8.490  0.9956E-02  0.3458E-01
     -8.397  0.2301E-01  0.3672E-01
     -8.304  0.3502E-01  0.3998E-01
     -8.211  0.3511E-01  0.4325E-01
     -8.118  0.2319E-01  0.4540E-01
     -8.025  0.1009E-01  0.4634E-01
     -7.931  0.2887E-02  0.4661E-01
     -7.838  0.5436E-03  0.4666E-01
     -7.745  0.6798E-04  0.4667E-01
     -7.652  0.1626E-04  0.4667E-01
     -7.559  0.1068E-03  0.4668E-01
     -7.466  0.6901E-03  0.4674E-01
     -7.373  0.2939E-02  0.4702E-01
     -7.280  0.8236E-02  0.4778E-01
     -7.187  0.1520E-01  0.4920E-01
     -7.094  0.1847E-01  0.5091E-01
     -7.001  0.1479E-01  0.5229E-01
     -6.908  0.7796E-02  0.5301E-01
     -6.815  0.2707E-02  0.5327E-01
     -6.722  0.6182E-03  0.5332E-01
     -6.629  0.9284E-04  0.5333E-01
     -6.536  0.9156E-05  0.5333E-01
     -6.443  0.5925E-06  0.5333E-01
     -6.350  0.2513E-07  0.5333E-01
     -6.257  0.6980E-09  0.5333E-01
     -6.164  0.1268E-10  0.5333E-01
     -6.071  0.1505E-12  0.5333E-01
     -5.978  0.1177E-14  0.5333E-01
     -5.885  0.0000E+00  0.5333E-01
     -5.792  0.0000E+00  0.5333E-01
     -5.699  0.0000E+00  0.5333E-01
     -5.606  0.0000E+00  0.5333E-01
     -5.513  0.0000E+00  0.5333E-01
     -5.420  0.0000E+00  0.5333E-01
     -5.326  0.0000E+00  0.5333E-01
     -5.233  0.0000E+00  0.5333E-01
     -5.140  0.0000E+00  0.5333E-01
     -5.047  0.0000E+00  0.5333E-01
     -4.954  0.0000E+00  0.5333E-01
     -4.861  0.0000E+00  0.5333E-01
     -4.768  0.0000E+00  0.5333E-01
     -4.675  0.0000E+00  0.5333E-01
     -4.582  0.0000E+00  0.5333E-01
     -4.489  0.0000E+00  0.5333E-01
     -4.396  0.0000E+00  0.5333E-01
     -4.303  0.0000E+00  0.5333E-01
     -4.210  0.0000E+00  0.5333E-01
     -4.117  0.0000E+00  0.5333E-01
     -4.024  0.0000E+00  0.5333E-01
     -3.931  0.0000E+00  0.5333E-01
     -3.838  0.0000E+00  0.5333E-01
     -3.745  0.0000E+00  0.5333E-01
     -3.652  0.0000E+00  0.5333E-01
     -3.559  0.0000E+00  0.5333E-01
     -3.466  0.0000E+00  0.5333E-01
     -3.373  0.0000E+00  0.5333E-01
     -3.280  0.0000E+00  0.5333E-01
     -3.187  0.0000E+00  0.5333E-01
     -3.094  0.0000E+00  0.5333E-01
     -3.001  0.0000E+00  0.5333E-01
     -2.908  0.0000E+00  0.5333E-01
     -2.815  0.0000E+00  0.5333E-01
     -2.722  0.0000E+00  0.5333E-01
     -2.628  0.0000E+00  0.5333E-01
     -2.535  0.0000E+00  0.5333E-01
     -2.442  0.0000E+00  0.5333E-01
     -2.349  0.0000E+00  0.5333E-01
     -2.256  0.0000E+00  0.5333E-01
     -2.163  0.0000E+00  0.5333E-01
     -2.070  0.0000E+00  0.5333E-01
     -1.977  0.0000E+00  0.5333E-01
     -1.884  0.7956E-16  0.5333E-01
     -1.791  0.1313E-13  0.5333E-01
     -1.698  0.1383E-11  0.5333E-01
     -1.605  0.9548E-10  0.5333E-01
     -1.512  0.4326E-08  0.5333E-01
     -1.419  0.1291E-06  0.5333E-01
     -1.326  0.2550E-05  0.5333E-01
     -1.233  0.3350E-04  0.5334E-01
     -1.140  0.2949E-03  0.5336E-01
     -1.047  0.1756E-02  0.5353E-01
     -0.954  0.7135E-02  0.5419E-01
     -0.861  0.1995E-01  0.5605E-01
     -0.768  0.3862E-01  0.5964E-01
     -0.675  0.5174E-01  0.6445E-01
     -0.582  0.4778E-01  0.6890E-01
     -0.489  0.3020E-01  0.7171E-01
     -0.396  0.1303E-01  0.7292E-01
     -0.303  0.4378E-02  0.7333E-01
     -0.210  0.3531E-02  0.7366E-01
     -0.117  0.8093E-02  0.7441E-01
     -0.024  0.1499E-01  0.7580E-01
      0.070  0.1847E-01  0.7752E-01
      0.163  0.1501E-01  0.7892E-01
      0.256  0.8028E-02  0.7967E-01
      0.349  0.2828E-02  0.7993E-01
      0.442  0.6555E-03  0.7999E-01
      0.535  0.9988E-04  0.8000E-01
      0.628  0.9996E-05  0.8000E-01
      0.721  0.6565E-06  0.8000E-01
      0.814  0.2826E-07  0.8000E-01
      0.907  0.7964E-09  0.8000E-01
      1.000  0.1468E-10  0.8000E-01
      1.093  0.1770E-12  0.8000E-01
      1.186  0.1392E-14  0.8000E-01
      1.279  0.7956E-17  0.8000E-01
      1.372  0.0000E+00  0.8000E-01
      1.465  0.0000E+00  0.8000E-01
      1.558  0.0000E+00  0.8000E-01
      1.651  0.0000E+00  0.8000E-01
      1.744  0.0000E+00  0.8000E-01
      1.837  0.0000E+00  0.8000E-01
      1.930  0.0000E+00  0.8000E-01
      2.023  0.0000E+00  0.8000E-01
