    6    6  300    1
  0.4500000E+04  0.3000000E-08  0.3000000E-08  0.3000000E-08  0.0000000E+00
  1.000000000000000E-004
  CAR 
 unknown system                          
     16      4     12
 
  0.2500000E+00  0.2500000E+00  0.2500000E+00  0.2500000E+00
    1      -23.887206   1.000000
    2      -19.296950   1.000000
    3      -13.882345   1.000000
    4      -11.796578   1.000000
    5      -11.795028   1.000000
    6       -8.303250   1.000000
    7       -8.302823   1.000000
    8       -7.143729   1.000000
    9       -0.763361   0.000000
   10       -0.663710   0.000000
   11       -0.662180   0.000000
   12        0.023246   0.000000
 
 -0.2500000E+00  0.2500000E+00  0.2500000E+00  0.2500000E+00
    1      -23.887206   1.000000
    2      -19.296951   1.000000
    3      -13.882343   1.000000
    4      -11.796580   1.000000
    5      -11.795027   1.000000
    6       -8.303239   1.000000
    7       -8.302824   1.000000
    8       -7.143730   1.000000
    9       -0.763361   0.000000
   10       -0.663716   0.000000
   11       -0.662180   0.000000
   12        0.023154   0.000000
 
  0.2500000E+00 -0.2500000E+00  0.2500000E+00  0.2500000E+00
    1      -23.887206   1.000000
    2      -19.296951   1.000000
    3      -13.882343   1.000000
    4      -11.796578   1.000000
    5      -11.795031   1.000000
    6       -8.303230   1.000000
    7       -8.302829   1.000000
    8       -7.143731   1.000000
    9       -0.763361   0.000000
   10       -0.663716   0.000000
   11       -0.662181   0.000000
   12        0.023131   0.000000
 
 -0.2500000E+00 -0.2500000E+00  0.2500000E+00  0.2500000E+00
    1      -23.887205   1.000000
    2      -19.296951   1.000000
    3      -13.882345   1.000000
    4      -11.796576   1.000000
    5      -11.795031   1.000000
    6       -8.303231   1.000000
    7       -8.302839   1.000000
    8       -7.143728   1.000000
    9       -0.763361   0.000000
   10       -0.663710   0.000000
   11       -0.662179   0.000000
   12        0.023268   0.000000
