       N       E                     dE             d eps       ncg     rms          rms(c)
DAV:   1     0.114531121044E+03    0.11453E+03   -0.21314E+03   160   0.366E+02
DAV:   2    -0.170716451979E+01   -0.11624E+03   -0.11371E+03   192   0.108E+02
DAV:   3    -0.347733264131E+02   -0.33066E+02   -0.32999E+02   152   0.855E+01
DAV:   4    -0.389873713122E+02   -0.42140E+01   -0.41887E+01   136   0.269E+01
DAV:   5    -0.391030192879E+02   -0.11565E+00   -0.11417E+00   128   0.466E+00    0.104E+01
DAV:   6    -0.364070393895E+02    0.26960E+01   -0.46086E+00   120   0.148E+01    0.563E+00
DAV:   7    -0.357093071351E+02    0.69773E+00   -0.17886E+00   128   0.922E+00    0.225E+00
DAV:   8    -0.356381609378E+02    0.71146E-01   -0.14374E-01   128   0.288E+00    0.880E-01
DAV:   9    -0.356197120603E+02    0.18449E-01   -0.20894E-02   120   0.122E+00    0.216E-01
DAV:  10    -0.356194492629E+02    0.26280E-03   -0.42420E-03   128   0.516E-01    0.130E-01
DAV:  11    -0.356210795973E+02   -0.16303E-02   -0.17500E-03   128   0.345E-01    0.804E-02
DAV:  12    -0.356267148096E+02   -0.56352E-02   -0.30330E-03   120   0.418E-01    0.456E-02
DAV:  13    -0.356326990203E+02   -0.59842E-02   -0.16246E-03   128   0.247E-01    0.283E-02
DAV:  14    -0.356367861038E+02   -0.40871E-02   -0.50377E-04   128   0.120E-01    0.182E-02
DAV:  15    -0.356400714383E+02   -0.32853E-02   -0.36428E-04   128   0.870E-02    0.113E-02
DAV:  16    -0.356412628995E+02   -0.11915E-02   -0.10398E-04   128   0.511E-02    0.647E-03
DAV:  17    -0.356420971772E+02   -0.83428E-03   -0.28228E-05    84   0.369E-02    0.407E-03
DAV:  18    -0.356424416350E+02   -0.34446E-03   -0.24890E-05    76   0.232E-02    0.273E-03
DAV:  19    -0.356426676656E+02   -0.22603E-03   -0.97983E-06    80   0.213E-02    0.287E-03
DAV:  20    -0.356427060679E+02   -0.38402E-04   -0.26328E-06    96   0.121E-02
   1 F= -.35642706E+02 E0= -.35642706E+02  d E =-.356427E+02
       N       E                     dE             d eps       ncg     rms          rms(c)
DAV:   1    -0.356428649865E+02   -0.19732E-03   -0.35556E-02    96   0.176E+00    0.527E-02
DAV:   2    -0.356428746246E+02   -0.96381E-05   -0.61388E-04   128   0.219E-01    0.349E-02
DAV:   3    -0.356428666459E+02    0.79788E-05   -0.54118E-05    96   0.790E-02    0.180E-02
DAV:   4    -0.356428828802E+02   -0.16234E-04   -0.44038E-05    64   0.651E-02    0.591E-03
DAV:   5    -0.356428878148E+02   -0.49347E-05   -0.86151E-06    68   0.290E-02    0.316E-03
DAV:   6    -0.356428932227E+02   -0.54078E-05   -0.28093E-06    64   0.149E-02
   2 F= -.35642893E+02 E0= -.35642893E+02  d E =-.187155E-03
       N       E                     dE             d eps       ncg     rms          rms(c)
DAV:   1    -0.356429448962E+02   -0.57081E-04   -0.98841E-02    96   0.285E+00    0.683E-02
DAV:   2    -0.356429999111E+02   -0.55015E-04   -0.13898E-03   128   0.305E-01    0.453E-02
DAV:   3    -0.356430012054E+02   -0.12944E-05   -0.50948E-05    96   0.724E-02    0.187E-02
DAV:   4    -0.356430183434E+02   -0.17138E-04   -0.28033E-05    64   0.457E-02    0.517E-03
DAV:   5    -0.356430211343E+02   -0.27909E-05   -0.62947E-06    96   0.221E-02    0.180E-03
DAV:   6    -0.356430224472E+02   -0.13129E-05   -0.10717E-06    64   0.854E-03
   3 F= -.35643022E+02 E0= -.35643022E+02  d E =-.129225E-03
       N       E                     dE             d eps       ncg     rms          rms(c)
DAV:   1    -0.356428562508E+02    0.16488E-03   -0.19461E-01    96   0.397E+00    0.939E-02
DAV:   2    -0.356429508396E+02   -0.94589E-04   -0.24730E-03   128   0.403E-01    0.625E-02
DAV:   3    -0.356429463037E+02    0.45359E-05   -0.10511E-04    96   0.107E-01    0.227E-02
DAV:   4    -0.356429717162E+02   -0.25412E-04   -0.51304E-05    64   0.615E-02    0.763E-03
DAV:   5    -0.356429753897E+02   -0.36735E-05   -0.10748E-05    96   0.293E-02    0.262E-03
DAV:   6    -0.356429776566E+02   -0.22669E-05   -0.21060E-06    64   0.119E-02
   4 F= -.35642978E+02 E0= -.35642978E+02  d E =0.447907E-04
       N       E                     dE             d eps       ncg     rms          rms(c)
DAV:   1    -0.356429251083E+02    0.50281E-04   -0.30346E-01    96   0.497E+00    0.122E-01
DAV:   2    -0.356430819588E+02   -0.15685E-03   -0.41011E-03   112   0.520E-01    0.794E-02
DAV:   3    -0.356430603832E+02    0.21576E-04   -0.20168E-04   128   0.138E-01    0.332E-02
DAV:   4    -0.356430955044E+02   -0.35121E-04   -0.57637E-05    80   0.687E-02    0.954E-03
DAV:   5    -0.356431016857E+02   -0.61813E-05   -0.11195E-05    96   0.315E-02    0.417E-03
DAV:   6    -0.356431050229E+02   -0.33372E-05   -0.20202E-06    64   0.128E-02
   5 F= -.35643105E+02 E0= -.35643105E+02  d E =-.127366E-03
       N       E                     dE             d eps       ncg     rms          rms(c)
DAV:   1    -0.356430629067E+02    0.38779E-04   -0.36749E-01    96   0.546E+00    0.132E-01
DAV:   2    -0.356432454926E+02   -0.18259E-03   -0.46574E-03   112   0.559E-01    0.887E-02
DAV:   3    -0.356432208006E+02    0.24692E-04   -0.28883E-04   128   0.173E-01    0.337E-02
DAV:   4    -0.356432618907E+02   -0.41090E-04   -0.72255E-05    64   0.794E-02    0.119E-02
DAV:   5    -0.356432687434E+02   -0.68527E-05   -0.12300E-05    72   0.343E-02    0.515E-03
DAV:   6    -0.356432744466E+02   -0.57032E-05   -0.39803E-06    84   0.171E-02
   6 F= -.35643274E+02 E0= -.35643274E+02  d E =-.169424E-03
       N       E                     dE             d eps       ncg     rms          rms(c)
DAV:   1    -0.356431040484E+02    0.16469E-03   -0.38719E-01    96   0.560E+00    0.135E-01
DAV:   2    -0.356433028132E+02   -0.19876E-03   -0.49739E-03   128   0.573E-01    0.891E-02
DAV:   3    -0.356432841801E+02    0.18633E-04   -0.24432E-04   128   0.153E-01    0.332E-02
DAV:   4    -0.356433251097E+02   -0.40930E-04   -0.64693E-05    64   0.695E-02    0.104E-02
DAV:   5    -0.356433339423E+02   -0.88326E-05   -0.10753E-05    64   0.303E-02    0.424E-03
DAV:   6    -0.356433400819E+02   -0.61396E-05   -0.19805E-06    64   0.122E-02
   7 F= -.35643340E+02 E0= -.35643340E+02  d E =-.656353E-04
       N       E                     dE             d eps       ncg     rms          rms(c)
DAV:   1    -0.356434154902E+02   -0.81548E-04   -0.10081E-03    96   0.303E-01    0.156E-02
DAV:   2    -0.356434165608E+02   -0.10707E-05   -0.23293E-05    64   0.459E-02    0.678E-03
DAV:   3    -0.356434191475E+02   -0.25866E-05   -0.54733E-06    72   0.233E-02    0.304E-03
DAV:   4    -0.356434228544E+02   -0.37070E-05   -0.24623E-06    84   0.144E-02    0.107E-03
DAV:   5    -0.356434254957E+02   -0.26412E-05   -0.51617E-07    48   0.661E-03    0.486E-04
DAV:   6    -0.356434280378E+02   -0.25421E-05   -0.19835E-07    72   0.329E-03
   8 F= -.35643428E+02 E0= -.35643428E+02  d E =-.879559E-04
       N       E                     dE             d eps       ncg     rms          rms(c)
DAV:   1    -0.356434608104E+02   -0.35315E-04   -0.22051E-03    96   0.447E-01    0.222E-02
DAV:   2    -0.356434576547E+02    0.31557E-05   -0.50253E-05    80   0.671E-02    0.962E-03
DAV:   3    -0.356434577434E+02   -0.88635E-07   -0.11517E-05    96   0.337E-02    0.417E-03
DAV:   4    -0.356434589942E+02   -0.12508E-05   -0.44935E-06    64   0.196E-02    0.146E-03
DAV:   5    -0.356434598230E+02   -0.82881E-06   -0.87454E-07    76   0.875E-03    0.637E-04
DAV:   6    -0.356434605998E+02   -0.77678E-06   -0.20933E-07    64   0.412E-03
   9 F= -.35643461E+02 E0= -.35643461E+02  d E =-.325620E-04
       N       E                     dE             d eps       ncg     rms          rms(c)
DAV:   1    -0.356434650662E+02   -0.52432E-05   -0.79581E-06    48   0.272E-02    0.132E-03
DAV:   2    -0.356434654448E+02   -0.37859E-06   -0.54901E-07    48   0.700E-03    0.763E-04
DAV:   3    -0.356434657753E+02   -0.33048E-06   -0.73332E-08    48   0.239E-03    0.482E-04
DAV:   4    -0.356434663712E+02   -0.59592E-06   -0.65453E-08    76   0.221E-03    0.173E-04
DAV:   5    -0.356434665534E+02   -0.18222E-06   -0.27348E-08    48   0.103E-03    0.127E-04
DAV:   6    -0.356434668475E+02   -0.29407E-06   -0.22233E-08    48   0.589E-04
  10 F= -.35643467E+02 E0= -.35643467E+02  d E =-.624767E-05
       N       E                     dE             d eps       ncg     rms          rms(c)
DAV:   1    -0.356434737232E+02   -0.71698E-05   -0.27888E-05    48   0.508E-02    0.223E-03
DAV:   2    -0.356434739332E+02   -0.20999E-06   -0.18105E-06    48   0.129E-02    0.138E-03
DAV:   3    -0.356434740049E+02   -0.71783E-07   -0.19019E-07    48   0.434E-03    0.908E-04
DAV:   4    -0.356434741948E+02   -0.18989E-06   -0.19124E-07    96   0.449E-03    0.321E-04
DAV:   5    -0.356434742409E+02   -0.46061E-07   -0.54825E-08    48   0.212E-03    0.234E-04
DAV:   6    -0.356434743072E+02   -0.66302E-07   -0.25449E-08    48   0.931E-04
  11 F= -.35643474E+02 E0= -.35643474E+02  d E =-.745973E-05
       N       E                     dE             d eps       ncg     rms          rms(c)
DAV:   1    -0.356434814043E+02   -0.71634E-05   -0.50007E-05    48   0.680E-02    0.285E-03
DAV:   2    -0.356434815988E+02   -0.19447E-06   -0.32163E-06    64   0.173E-02    0.185E-03
DAV:   3    -0.356434815797E+02    0.19074E-07   -0.32271E-07    48   0.575E-03    0.122E-03
DAV:   4    -0.356434816350E+02   -0.55232E-07   -0.34282E-07    96   0.618E-03    0.458E-04
DAV:   5    -0.356434816519E+02   -0.16964E-07   -0.90203E-08    48   0.293E-03    0.327E-04
DAV:   6    -0.356434816776E+02   -0.25704E-07   -0.34752E-08    48   0.125E-03
  12 F= -.35643482E+02 E0= -.35643482E+02  d E =-.737042E-05
       N       E                     dE             d eps       ncg     rms          rms(c)
DAV:   1    -0.356434874764E+02   -0.58244E-05   -0.63682E-05    48   0.767E-02    0.288E-03
DAV:   2    -0.356434876780E+02   -0.20169E-06   -0.39987E-06    64   0.194E-02    0.204E-03
DAV:   3    -0.356434876267E+02    0.51366E-07   -0.39101E-07    48   0.631E-03    0.140E-03
DAV:   4    -0.356434876302E+02   -0.35054E-08   -0.44638E-07    64   0.713E-03    0.566E-04
DAV:   5    -0.356434876377E+02   -0.75383E-08   -0.11503E-07    48   0.341E-03    0.396E-04
DAV:   6    -0.356434876525E+02   -0.14783E-07   -0.43617E-08    48   0.145E-03
  13 F= -.35643488E+02 E0= -.35643488E+02  d E =-.597489E-05
       N       E                     dE             d eps       ncg     rms          rms(c)
DAV:   1    -0.356434920151E+02   -0.43774E-05   -0.64497E-05    48   0.772E-02    0.248E-03
DAV:   2    -0.356434922156E+02   -0.20053E-06   -0.37741E-06    48   0.191E-02    0.192E-03
DAV:   3    -0.356434921838E+02    0.31781E-07   -0.37043E-07    48   0.607E-03    0.137E-03
DAV:   4    -0.356434921896E+02   -0.57810E-08   -0.36345E-07    48   0.639E-03    0.513E-04
DAV:   5    -0.356434921996E+02   -0.99669E-08   -0.96758E-08    48   0.306E-03    0.392E-04
DAV:   6    -0.356434922157E+02   -0.16135E-07   -0.40177E-08    48   0.130E-03
  14 F= -.35643492E+02 E0= -.35643492E+02  d E =-.456322E-05
       N       E                     dE             d eps       ncg     rms          rms(c)
DAV:   1    -0.356434962105E+02   -0.40109E-05   -0.61544E-05    48   0.757E-02    0.220E-03
DAV:   2    -0.356434964154E+02   -0.20490E-06   -0.32555E-06    48   0.184E-02    0.166E-03
DAV:   3    -0.356434964237E+02   -0.83251E-08   -0.33884E-07    48   0.580E-03    0.110E-03
DAV:   4    -0.356434964476E+02   -0.23879E-07   -0.18669E-07    48   0.423E-03    0.382E-04
DAV:   5    -0.356434964627E+02   -0.15165E-07   -0.57022E-08    48   0.193E-03    0.281E-04
DAV:   6    -0.356434964778E+02   -0.15108E-07   -0.25200E-08    48   0.777E-04
  15 F= -.35643496E+02 E0= -.35643496E+02  d E =-.426211E-05
       N       E                     dE             d eps       ncg     rms          rms(c)
DAV:   1    -0.356435016762E+02   -0.52134E-05   -0.84131E-05    48   0.891E-02    0.247E-03
DAV:   2    -0.356435020032E+02   -0.32700E-06   -0.43531E-06    48   0.218E-02    0.162E-03
DAV:   3    -0.356435020604E+02   -0.57215E-07   -0.49391E-07    48   0.683E-03    0.978E-04
DAV:   4    -0.356435020920E+02   -0.31599E-07   -0.15127E-07    48   0.348E-03    0.349E-04
DAV:   5    -0.356435021036E+02   -0.11638E-07   -0.55379E-08    48   0.170E-03    0.198E-04
DAV:   6    -0.356435021102E+02   -0.66425E-08   -0.27464E-08    48   0.928E-04
  16 F= -.35643502E+02 E0= -.35643502E+02  d E =-.563241E-05
       N       E                     dE             d eps       ncg     rms          rms(c)
DAV:   1    -0.356435086561E+02   -0.65525E-05   -0.13971E-04    48   0.115E-01    0.317E-03
DAV:   2    -0.356435092073E+02   -0.55127E-06   -0.73597E-06    64   0.283E-02    0.186E-03
DAV:   3    -0.356435093082E+02   -0.10084E-06   -0.87019E-07    48   0.883E-03    0.112E-03
DAV:   4    -0.356435093435E+02   -0.35348E-07   -0.22400E-07    48   0.419E-03    0.299E-04
DAV:   5    -0.356435093473E+02   -0.37533E-08   -0.78477E-08    48   0.208E-03    0.175E-04
DAV:   6    -0.356435093466E+02    0.63687E-09   -0.36328E-08    48   0.113E-03
  17 F= -.35643509E+02 E0= -.35643509E+02  d E =-.723640E-05
       N       E                     dE             d eps       ncg     rms          rms(c)
DAV:   1    -0.356435165811E+02   -0.72338E-05   -0.24648E-04   100   0.149E-01    0.446E-03
DAV:   2    -0.356435165685E+02    0.12539E-07   -0.44839E-06    64   0.193E-02    0.245E-03
DAV:   3    -0.356435166030E+02   -0.34477E-07   -0.70048E-07    48   0.782E-03    0.120E-03
DAV:   4    -0.356435166369E+02   -0.33929E-07   -0.19686E-07    48   0.406E-03    0.300E-04
DAV:   5    -0.356435166379E+02   -0.98680E-09   -0.64429E-08    48   0.189E-03    0.163E-04
DAV:   6    -0.356435166427E+02   -0.47385E-08   -0.31890E-08    48   0.967E-04
  18 F= -.35643517E+02 E0= -.35643517E+02  d E =-.729603E-05
       N       E                     dE             d eps       ncg     rms          rms(c)
DAV:   1    -0.356435221445E+02   -0.55066E-05   -0.37512E-04    96   0.183E-01    0.520E-03
DAV:   2    -0.356435221236E+02    0.20917E-07   -0.61283E-06    64   0.225E-02    0.294E-03
DAV:   3    -0.356435221862E+02   -0.62586E-07   -0.96207E-07    48   0.906E-03    0.142E-03
DAV:   4    -0.356435222470E+02   -0.60803E-07   -0.27840E-07    48   0.485E-03    0.385E-04
DAV:   5    -0.356435222560E+02   -0.89987E-08   -0.85040E-08    48   0.224E-03    0.206E-04
DAV:   6    -0.356435222677E+02   -0.11716E-07   -0.37575E-08    48   0.114E-03
  19 F= -.35643522E+02 E0= -.35643522E+02  d E =-.562503E-05
       N       E                     dE             d eps       ncg     rms          rms(c)
DAV:   1    -0.356435277351E+02   -0.54791E-05   -0.55065E-04    96   0.218E-01    0.557E-03
DAV:   2    -0.356435277674E+02   -0.32340E-07   -0.69305E-06    48   0.240E-02    0.331E-03
DAV:   3    -0.356435279401E+02   -0.17263E-06   -0.10749E-06    48   0.952E-03    0.127E-03
DAV:   4    -0.356435280268E+02   -0.86749E-07   -0.29083E-07    48   0.473E-03    0.393E-04
DAV:   5    -0.356435280493E+02   -0.22480E-07   -0.94152E-08    48   0.229E-03    0.201E-04
DAV:   6    -0.356435280706E+02   -0.21309E-07   -0.43840E-08    48   0.123E-03
  20 F= -.35643528E+02 E0= -.35643528E+02  d E =-.580292E-05
       N       E                     dE             d eps       ncg     rms          rms(c)
DAV:   1    -0.356435379069E+02   -0.98576E-05   -0.93024E-04    96   0.278E-01    0.665E-03
DAV:   2    -0.356435379244E+02   -0.17498E-07   -0.96765E-06    64   0.277E-02    0.418E-03
DAV:   3    -0.356435383071E+02   -0.38277E-06   -0.16460E-06    64   0.121E-02    0.106E-03
DAV:   4    -0.356435383904E+02   -0.83297E-07   -0.44763E-07    48   0.557E-03    0.542E-04
DAV:   5    -0.356435384227E+02   -0.32287E-07   -0.13074E-07    48   0.273E-03    0.263E-04
DAV:   6    -0.356435384562E+02   -0.33508E-07   -0.65053E-08    48   0.166E-03
  21 F= -.35643538E+02 E0= -.35643538E+02  d E =-.103856E-04
       N       E                     dE             d eps       ncg     rms          rms(c)
DAV:   1    -0.356435520275E+02   -0.13605E-04   -0.16813E-03    96   0.374E-01    0.913E-03
DAV:   2    -0.356435520071E+02    0.20392E-07   -0.19077E-05    64   0.384E-02    0.577E-03
DAV:   3    -0.356435524915E+02   -0.48442E-06   -0.33101E-06    96   0.170E-02    0.188E-03
DAV:   4    -0.356435526973E+02   -0.20579E-06   -0.94899E-07    48   0.827E-03    0.891E-04
DAV:   5    -0.356435527462E+02   -0.48902E-07   -0.24030E-07    48   0.399E-03    0.367E-04
DAV:   6    -0.356435527950E+02   -0.48777E-07   -0.10743E-07    48   0.228E-03
  22 F= -.35643553E+02 E0= -.35643553E+02  d E =-.143388E-04
       N       E                     dE             d eps       ncg     rms          rms(c)
DAV:   1    -0.356435641576E+02   -0.11411E-04   -0.28502E-03    96   0.487E-01    0.117E-02
DAV:   2    -0.356435644868E+02   -0.32916E-06   -0.33405E-05    64   0.507E-02    0.738E-03
DAV:   3    -0.356435652688E+02   -0.78201E-06   -0.53430E-06    64   0.213E-02    0.249E-03
DAV:   4    -0.356435656106E+02   -0.34177E-06   -0.14787E-06    48   0.102E-02    0.106E-03
DAV:   5    -0.356435656961E+02   -0.85584E-07   -0.39250E-07    48   0.501E-03    0.374E-04
DAV:   6    -0.356435657718E+02   -0.75637E-07   -0.15372E-07    48   0.269E-03
  23 F= -.35643566E+02 E0= -.35643566E+02  d E =-.129768E-04
       N       E                     dE             d eps       ncg     rms          rms(c)
DAV:   1    -0.356435772293E+02   -0.11533E-04   -0.44538E-03    96   0.606E-01    0.141E-02
DAV:   2    -0.356435783316E+02   -0.11023E-05   -0.49500E-05    64   0.618E-02    0.896E-03
DAV:   3    -0.356435797072E+02   -0.13756E-05   -0.72561E-06    64   0.248E-02    0.263E-03
DAV:   4    -0.356435801355E+02   -0.42828E-06   -0.19033E-06    48   0.113E-02    0.104E-03
DAV:   5    -0.356435802736E+02   -0.13813E-06   -0.54472E-07    48   0.548E-03    0.373E-04
DAV:   6    -0.356435803852E+02   -0.11159E-06   -0.20385E-07    48   0.296E-03
  24 F= -.35643580E+02 E0= -.35643580E+02  d E =-.146134E-04
       N       E                     dE             d eps       ncg     rms          rms(c)
DAV:   1    -0.356435896980E+02   -0.94244E-05   -0.68460E-03    96   0.752E-01    0.177E-02
DAV:   2    -0.356435912268E+02   -0.15288E-05   -0.74816E-05    72   0.764E-02    0.112E-02
DAV:   3    -0.356435928963E+02   -0.16695E-05   -0.11146E-05    64   0.314E-02    0.360E-03
DAV:   4    -0.356435936261E+02   -0.72983E-06   -0.32008E-06    48   0.150E-02    0.142E-03
DAV:   5    -0.356435938104E+02   -0.18427E-06   -0.83672E-07    48   0.705E-03    0.568E-04
DAV:   6    -0.356435939618E+02   -0.15149E-06   -0.29868E-07    48   0.375E-03
  25 F= -.35643594E+02 E0= -.35643594E+02  d E =-.135767E-04
       N       E                     dE             d eps       ncg     rms          rms(c)
DAV:   1    -0.356436030249E+02   -0.92145E-05   -0.95659E-03    96   0.884E-01    0.201E-02
DAV:   2    -0.356436054076E+02   -0.23828E-05   -0.99651E-05    64   0.877E-02    0.128E-02
DAV:   3    -0.356436079203E+02   -0.25127E-05   -0.14728E-05    64   0.357E-02    0.341E-03
DAV:   4    -0.356436087215E+02   -0.80115E-06   -0.39764E-06    48   0.162E-02    0.136E-03
DAV:   5    -0.356436090144E+02   -0.29293E-06   -0.11102E-06    48   0.786E-03    0.495E-04
DAV:   6    -0.356436092183E+02   -0.20395E-06   -0.40566E-07    48   0.429E-03
  26 F= -.35643609E+02 E0= -.35643609E+02  d E =-.152565E-04
       N       E                     dE             d eps       ncg     rms          rms(c)
DAV:   1    -0.356436184788E+02   -0.94644E-05   -0.12970E-02    96   0.103E+00    0.235E-02
DAV:   2    -0.356436236099E+02   -0.51311E-05   -0.15885E-04    96   0.104E-01    0.159E-02
DAV:   3    -0.356436240731E+02   -0.46322E-06   -0.77873E-06    64   0.303E-02    0.580E-03
DAV:   4    -0.356436255105E+02   -0.14374E-05   -0.36758E-06    48   0.173E-02    0.213E-03
DAV:   5    -0.356436257643E+02   -0.25379E-06   -0.72541E-07    48   0.796E-03    0.950E-04
DAV:   6    -0.356436260485E+02   -0.28425E-06   -0.22795E-07    48   0.394E-03
  27 F= -.35643626E+02 E0= -.35643626E+02  d E =-.168302E-04
       N       E                     dE             d eps       ncg     rms          rms(c)
DAV:   1    -0.356436326990E+02   -0.69348E-05   -0.15199E-02    96   0.112E+00    0.253E-02
DAV:   2    -0.356436403066E+02   -0.76076E-05   -0.20019E-04    96   0.118E-01    0.168E-02
DAV:   3    -0.356436401513E+02    0.15531E-06   -0.74014E-06    96   0.287E-02    0.722E-03
DAV:   4    -0.356436420236E+02   -0.18723E-05   -0.44789E-06    64   0.190E-02    0.207E-03
DAV:   5    -0.356436424019E+02   -0.37830E-06   -0.10967E-06    56   0.960E-03    0.862E-04
DAV:   6    -0.356436426357E+02   -0.23377E-06   -0.20375E-07    48   0.365E-03
  28 F= -.35643643E+02 E0= -.35643643E+02  d E =-.165872E-04
       N       E                     dE             d eps       ncg     rms          rms(c)
DAV:   1    -0.356436450776E+02   -0.26757E-05   -0.21687E-05    48   0.455E-02    0.196E-03
DAV:   2    -0.356436453240E+02   -0.24641E-06   -0.13246E-06    48   0.114E-02    0.105E-03
DAV:   3    -0.356436454912E+02   -0.16721E-06   -0.17253E-07    48   0.369E-03    0.689E-04
DAV:   4    -0.356436458457E+02   -0.35446E-06   -0.11038E-07    64   0.314E-03    0.197E-04
DAV:   5    -0.356436459722E+02   -0.12648E-06   -0.44916E-08    48   0.151E-03    0.156E-04
DAV:   6    -0.356436461048E+02   -0.13265E-06   -0.25600E-08    48   0.742E-04
  29 F= -.35643646E+02 E0= -.35643646E+02  d E =-.346915E-05
       N       E                     dE             d eps       ncg     rms          rms(c)
DAV:   1    -0.356436477292E+02   -0.17570E-05   -0.55366E-05    48   0.729E-02    0.301E-03
DAV:   2    -0.356436479394E+02   -0.21016E-06   -0.32903E-06    68   0.182E-02    0.158E-03
DAV:   3    -0.356436479864E+02   -0.46968E-07   -0.40434E-07    48   0.585E-03    0.104E-03
DAV:   4    -0.356436481029E+02   -0.11652E-06   -0.21619E-07    96   0.473E-03    0.290E-04
DAV:   5    -0.356436481533E+02   -0.50461E-07   -0.76512E-08    48   0.225E-03    0.229E-04
DAV:   6    -0.356436481993E+02   -0.45994E-07   -0.31623E-08    48   0.105E-03
  30 F= -.35643648E+02 E0= -.35643648E+02  d E =-.209450E-05
       N       E                     dE             d eps       ncg     rms          rms(c)
DAV:   1    -0.356436479778E+02    0.17552E-06   -0.48189E-05    60   0.681E-02    0.240E-03
DAV:   2    -0.356436481059E+02   -0.12808E-06   -0.27920E-06    64   0.169E-02    0.136E-03
DAV:   3    -0.356436481141E+02   -0.82141E-08   -0.34816E-07    48   0.535E-03    0.929E-04
DAV:   4    -0.356436481377E+02   -0.23594E-07   -0.15343E-07    64   0.382E-03    0.232E-04
DAV:   5    -0.356436481579E+02   -0.20163E-07   -0.61972E-08    48   0.183E-03    0.191E-04
DAV:   6    -0.356436481773E+02   -0.19445E-07   -0.29496E-08    48   0.881E-04
  31 F= -.35643648E+02 E0= -.35643648E+02  d E =0.220135E-07
       N       E                     dE             d eps       ncg     rms          rms(c)
DAV:   1    -0.356436484867E+02   -0.32881E-06   -0.49713E-07    48   0.677E-03    0.272E-04
DAV:   2    -0.356436485087E+02   -0.22045E-07   -0.48266E-08    48   0.163E-03    0.155E-04
DAV:   3    -0.356436485243E+02   -0.15554E-07   -0.23038E-08    48   0.518E-04    0.104E-04
DAV:   4    -0.356436485530E+02   -0.28671E-07   -0.21383E-08    48   0.444E-04    0.300E-05
DAV:   5    -0.356436485636E+02   -0.10680E-07   -0.19795E-08    48   0.203E-04    0.242E-05
DAV:   6    -0.356436485740E+02   -0.10378E-07   -0.19190E-08    48   0.100E-04
  32 F= -.35643649E+02 E0= -.35643649E+02  d E =-.396697E-06
       N       E                     dE             d eps       ncg     rms          rms(c)
DAV:   1    -0.356436490436E+02   -0.47993E-06   -0.18160E-06    48   0.131E-02    0.566E-04
DAV:   2    -0.356436490613E+02   -0.17707E-07   -0.12821E-07    48   0.323E-03    0.320E-04
DAV:   3    -0.356436490657E+02   -0.44238E-08   -0.28977E-08    48   0.106E-03    0.211E-04
DAV:   4    -0.356436490730E+02   -0.72584E-08   -0.26851E-08    48   0.102E-03    0.692E-05
DAV:   5    -0.356436490748E+02   -0.18736E-08   -0.19613E-08    48   0.493E-04    0.547E-05
DAV:   6    -0.356436490770E+02   -0.22153E-08   -0.17766E-08    48   0.210E-04
  33 F= -.35643649E+02 E0= -.35643649E+02  d E =-.503026E-06
       N       E                     dE             d eps       ncg     rms          rms(c)
DAV:   1    -0.356436495777E+02   -0.50284E-06   -0.33859E-06    48   0.179E-02    0.765E-04
DAV:   2    -0.356436495945E+02   -0.16881E-07   -0.22037E-07    48   0.441E-03    0.436E-04
DAV:   3    -0.356436495933E+02    0.12792E-08   -0.37286E-08    48   0.146E-03    0.286E-04
DAV:   4    -0.356436495936E+02   -0.28672E-09   -0.34407E-08    48   0.140E-03    0.962E-05
DAV:   5    -0.356436495937E+02   -0.18122E-09   -0.20764E-08    48   0.683E-04    0.760E-05
DAV:   6    -0.356436495944E+02   -0.67598E-09   -0.17490E-08    48   0.289E-04
  34 F= -.35643650E+02 E0= -.35643650E+02  d E =-.517367E-06
       N       E                     dE             d eps       ncg     rms          rms(c)
DAV:   1    -0.356436500076E+02   -0.41381E-06   -0.45777E-06    48   0.209E-02    0.849E-04
DAV:   2    -0.356436500257E+02   -0.18124E-07   -0.28481E-07    48   0.511E-03    0.497E-04
DAV:   3    -0.356436500229E+02    0.28188E-08   -0.43523E-08    48   0.169E-03    0.323E-04
DAV:   4    -0.356436500222E+02    0.64165E-09   -0.40002E-08    48   0.162E-03    0.113E-04
DAV:   5    -0.356436500223E+02   -0.12665E-09   -0.21771E-08    48   0.789E-04    0.907E-05
DAV:   6    -0.356436500232E+02   -0.89926E-09   -0.17576E-08    48   0.340E-04
  35 F= -.35643650E+02 E0= -.35643650E+02  d E =-.428827E-06
       N       E                     dE             d eps       ncg     rms          rms(c)
DAV:   1    -0.356436503025E+02   -0.28016E-06   -0.50447E-06    48   0.219E-02    0.789E-04
DAV:   2    -0.356436503220E+02   -0.19508E-07   -0.29694E-07    48   0.529E-03    0.488E-04
DAV:   3    -0.356436503203E+02    0.16917E-08   -0.45467E-08    48   0.173E-03    0.318E-04
DAV:   4    -0.356436503206E+02   -0.29149E-09   -0.38984E-08    48   0.160E-03    0.113E-04
DAV:   5    -0.356436503209E+02   -0.28081E-09   -0.21558E-08    48   0.771E-04    0.923E-05
DAV:   6    -0.356436503222E+02   -0.12951E-08   -0.17506E-08    48   0.343E-04
  36 F= -.35643650E+02 E0= -.35643650E+02  d E =-.298942E-06
       N       E                     dE             d eps       ncg     rms          rms(c)
DAV:   1    -0.356436505239E+02   -0.20305E-06   -0.53755E-06    48   0.225E-02    0.631E-04
DAV:   2    -0.356436505467E+02   -0.22768E-07   -0.29295E-07    48   0.531E-03    0.434E-04
DAV:   3    -0.356436505474E+02   -0.66029E-09   -0.46226E-08    48   0.169E-03    0.296E-04
DAV:   4    -0.356436505487E+02   -0.13333E-08   -0.33210E-08    48   0.137E-03    0.959E-05
DAV:   5    -0.356436505495E+02   -0.83924E-09   -0.20550E-08    48   0.650E-04    0.857E-05
DAV:   6    -0.356436505508E+02   -0.12965E-08   -0.17146E-08    48   0.298E-04
  37 F= -.35643651E+02 E0= -.35643651E+02  d E =-.228652E-06
       N       E                     dE             d eps       ncg     rms          rms(c)
DAV:   1    -0.356436508139E+02   -0.26440E-06   -0.82223E-06    48   0.273E-02    0.598E-04
DAV:   2    -0.356436508508E+02   -0.36811E-07   -0.41651E-07    48   0.645E-03    0.423E-04
DAV:   3    -0.356436508549E+02   -0.41032E-08   -0.61930E-08    48   0.197E-03    0.300E-04
DAV:   4    -0.356436508570E+02   -0.21514E-08   -0.31101E-08    48   0.117E-03    0.108E-04
DAV:   5    -0.356436508583E+02   -0.12665E-08   -0.20796E-08    48   0.564E-04    0.774E-05
DAV:   6    -0.356436508597E+02   -0.14659E-08   -0.17289E-08    48   0.277E-04
  38 F= -.35643651E+02 E0= -.35643651E+02  d E =-.308906E-06
       N       E                     dE             d eps       ncg     rms          rms(c)
DAV:   1    -0.356436513342E+02   -0.47597E-06   -0.14574E-05    48   0.359E-02    0.722E-04
DAV:   2    -0.356436513979E+02   -0.63699E-07   -0.71562E-07    48   0.854E-03    0.466E-04
DAV:   3    -0.356436514075E+02   -0.95922E-08   -0.99338E-08    48   0.256E-03    0.291E-04
DAV:   4    -0.356436514112E+02   -0.36355E-08   -0.37593E-08    48   0.123E-03    0.962E-05
DAV:   5    -0.356436514126E+02   -0.14606E-08   -0.22945E-08    48   0.603E-04    0.672E-05
DAV:   6    -0.356436514140E+02   -0.13913E-08   -0.18424E-08    48   0.332E-04
  39 F= -.35643651E+02 E0= -.35643651E+02  d E =-.554286E-06
       N       E                     dE             d eps       ncg     rms          rms(c)
DAV:   1    -0.356436521821E+02   -0.76948E-06   -0.27740E-05    48   0.495E-02    0.100E-03
DAV:   2    -0.356436522970E+02   -0.11487E-06   -0.13711E-06    48   0.118E-02    0.632E-04
DAV:   3    -0.356436523147E+02   -0.17760E-07   -0.17911E-07    48   0.353E-03    0.371E-04
DAV:   4    -0.356436523197E+02   -0.49865E-08   -0.56772E-08    48   0.168E-03    0.807E-05
DAV:   5    -0.356436523218E+02   -0.20417E-08   -0.29712E-08    48   0.825E-04    0.792E-05
DAV:   6    -0.356436523226E+02   -0.87084E-09   -0.20889E-08    48   0.456E-04
  40 F= -.35643652E+02 E0= -.35643652E+02  d E =-.908611E-06
       N       E                     dE             d eps       ncg     rms          rms(c)
DAV:   1    -0.356436532546E+02   -0.93279E-06   -0.51348E-05    48   0.676E-02    0.142E-03
DAV:   2    -0.356436534600E+02   -0.20542E-06   -0.25717E-06    48   0.162E-02    0.905E-04
DAV:   3    -0.356436534882E+02   -0.28257E-07   -0.32498E-07    48   0.488E-03    0.555E-04
DAV:   4    -0.356436534954E+02   -0.71625E-08   -0.96882E-08    48   0.249E-03    0.109E-04
DAV:   5    -0.356436534990E+02   -0.35916E-08   -0.43570E-08    48   0.121E-03    0.126E-04
DAV:   6    -0.356436534999E+02   -0.89585E-09   -0.25307E-08    48   0.640E-04
  41 F= -.35643653E+02 E0= -.35643653E+02  d E =-.117724E-05
       N       E                     dE             d eps       ncg     rms          rms(c)
DAV:   1    -0.356436542758E+02   -0.77681E-06   -0.86892E-05    48   0.879E-02    0.189E-03
DAV:   2    -0.356436546230E+02   -0.34725E-06   -0.43604E-06    48   0.211E-02    0.120E-03
DAV:   3    -0.356436546708E+02   -0.47792E-07   -0.54113E-07    48   0.636E-03    0.745E-04
DAV:   4    -0.356436546803E+02   -0.95038E-08   -0.15545E-07    48   0.331E-03    0.146E-04
DAV:   5    -0.356436546862E+02   -0.58944E-08   -0.63913E-08    48   0.159E-03    0.171E-04
DAV:   6    -0.356436546876E+02   -0.14088E-08   -0.32094E-08    48   0.837E-04
  42 F= -.35643655E+02 E0= -.35643655E+02  d E =-.118777E-05
       N       E                     dE             d eps       ncg     rms          rms(c)
DAV:   1    -0.356436558020E+02   -0.11158E-05   -0.13934E-04    80   0.108E-01    0.247E-03
DAV:   2    -0.356436558230E+02   -0.20984E-07   -0.16424E-06    48   0.112E-02    0.153E-03
DAV:   3    -0.356436558393E+02   -0.16305E-07   -0.25535E-07    48   0.446E-03    0.589E-04
DAV:   4    -0.356436558519E+02   -0.12553E-07   -0.88714E-08    48   0.226E-03    0.192E-04
DAV:   5    -0.356436558579E+02   -0.60493E-08   -0.39411E-08    48   0.107E-03    0.816E-05
DAV:   6    -0.356436558650E+02   -0.70734E-08   -0.26783E-08    48   0.560E-04
  43 F= -.35643656E+02 E0= -.35643656E+02  d E =-.117733E-05
       N       E                     dE             d eps       ncg     rms          rms(c)
DAV:   1    -0.356436573392E+02   -0.14813E-05   -0.20471E-04    96   0.131E-01    0.274E-03
DAV:   2    -0.356436574119E+02   -0.72720E-07   -0.21877E-06    48   0.130E-02    0.178E-03
DAV:   3    -0.356436574573E+02   -0.45439E-07   -0.33089E-07    48   0.518E-03    0.563E-04
DAV:   4    -0.356436574795E+02   -0.22189E-07   -0.10542E-07    48   0.244E-03    0.199E-04
DAV:   5    -0.356436574901E+02   -0.10566E-07   -0.44453E-08    48   0.120E-03    0.817E-05
DAV:   6    -0.356436574996E+02   -0.95406E-08   -0.28820E-08    48   0.649E-04
  44 F= -.35643657E+02 E0= -.35643657E+02  d E =-.163464E-05
       N       E                     dE             d eps       ncg     rms          rms(c)
DAV:   1    -0.356436593860E+02   -0.18960E-05   -0.30460E-04    96   0.159E-01    0.342E-03
DAV:   2    -0.356436594828E+02   -0.96757E-07   -0.32774E-06    52   0.160E-02    0.224E-03
DAV:   3    -0.356436595355E+02   -0.52737E-07   -0.52325E-07    48   0.670E-03    0.762E-04
DAV:   4    -0.356436595663E+02   -0.30753E-07   -0.16882E-07    48   0.328E-03    0.322E-04
DAV:   5    -0.356436595771E+02   -0.10796E-07   -0.58084E-08    48   0.159E-03    0.136E-04
DAV:   6    -0.356436595886E+02   -0.11504E-07   -0.34029E-08    48   0.882E-04
  45 F= -.35643660E+02 E0= -.35643660E+02  d E =-.208897E-05
       N       E                     dE             d eps       ncg     rms          rms(c)
DAV:   1    -0.356436612964E+02   -0.17193E-05   -0.43919E-04    96   0.192E-01    0.411E-03
DAV:   2    -0.356436614289E+02   -0.13247E-06   -0.47472E-06    64   0.193E-02    0.268E-03
DAV:   3    -0.356436614920E+02   -0.63134E-07   -0.74455E-07    48   0.803E-03    0.934E-04
DAV:   4    -0.356436615343E+02   -0.42258E-07   -0.23641E-07    48   0.397E-03    0.388E-04
DAV:   5    -0.356436615495E+02   -0.15233E-07   -0.75075E-08    48   0.193E-03    0.158E-04
DAV:   6    -0.356436615664E+02   -0.16853E-07   -0.40019E-08    48   0.105E-03
  46 F= -.35643662E+02 E0= -.35643662E+02  d E =-.197777E-05
       N       E                     dE             d eps       ncg     rms          rms(c)
DAV:   1    -0.356436635823E+02   -0.20328E-05   -0.58195E-04    96   0.220E-01    0.457E-03
DAV:   2    -0.356436637986E+02   -0.21631E-06   -0.61429E-06    48   0.219E-02    0.298E-03
DAV:   3    -0.356436638938E+02   -0.95162E-07   -0.86947E-07    48   0.859E-03    0.942E-04
DAV:   4    -0.356436639445E+02   -0.50710E-07   -0.25532E-07    48   0.406E-03    0.313E-04
DAV:   5    -0.356436639684E+02   -0.23884E-07   -0.85890E-08    48   0.199E-03    0.115E-04
DAV:   6    -0.356436639876E+02   -0.19243E-07   -0.42904E-08    48   0.106E-03
  47 F= -.35643664E+02 E0= -.35643664E+02  d E =-.242128E-05
       N       E                     dE             d eps       ncg     rms          rms(c)
DAV:   1    -0.356436659882E+02   -0.20198E-05   -0.75517E-04    96   0.252E-01    0.537E-03
DAV:   2    -0.356436662318E+02   -0.24368E-06   -0.82873E-06    64   0.255E-02    0.349E-03
DAV:   3    -0.356436663083E+02   -0.76509E-07   -0.11832E-06    48   0.101E-02    0.129E-03
DAV:   4    -0.356436663804E+02   -0.72038E-07   -0.37537E-07    48   0.515E-03    0.422E-04
DAV:   5    -0.356436664077E+02   -0.27290E-07   -0.11194E-07    48   0.243E-03    0.169E-04
DAV:   6    -0.356436664286E+02   -0.20942E-07   -0.49989E-08    48   0.125E-03
  48 F= -.35643666E+02 E0= -.35643666E+02  d E =-.244097E-05
       N       E                     dE             d eps       ncg     rms          rms(c)
DAV:   1    -0.356436687228E+02   -0.23151E-05   -0.80650E-04    96   0.260E-01    0.529E-03
DAV:   2    -0.356436690619E+02   -0.33914E-06   -0.85640E-06    60   0.259E-02    0.349E-03
DAV:   3    -0.356436691724E+02   -0.11047E-06   -0.12078E-06    48   0.102E-02    0.117E-03
DAV:   4    -0.356436692422E+02   -0.69754E-07   -0.36481E-07    48   0.496E-03    0.436E-04
DAV:   5    -0.356436692698E+02   -0.27674E-07   -0.11138E-07    48   0.244E-03    0.168E-04
DAV:   6    -0.356436692939E+02   -0.24096E-07   -0.51172E-08    48   0.130E-03
  49 F= -.35643669E+02 E0= -.35643669E+02  d E =-.286533E-05
       N       E                     dE             d eps       ncg     rms          rms(c)
DAV:   1    -0.356436693534E+02   -0.83515E-07   -0.14265E-07    48   0.333E-03    0.112E-04
DAV:   2    -0.356436693710E+02   -0.17681E-07   -0.30503E-08    48   0.906E-04    0.725E-05
DAV:   3    -0.356436693958E+02   -0.24775E-07   -0.22962E-08    48   0.383E-04    0.362E-05
DAV:   4    -0.356436694271E+02   -0.31285E-07   -0.21571E-08    48   0.239E-04    0.126E-05
DAV:   5    -0.356436694422E+02   -0.15150E-07   -0.20800E-08    48   0.138E-04    0.112E-05
DAV:   6    -0.356436694730E+02   -0.30802E-07   -0.20375E-08    48   0.108E-04
  50 F= -.35643669E+02 E0= -.35643669E+02  d E =-.179112E-06
       N       E                     dE             d eps       ncg     rms          rms(c)
DAV:   1    -0.356436695569E+02   -0.11467E-06   -0.45091E-07    48   0.632E-03    0.175E-04
DAV:   2    -0.356436695657E+02   -0.87530E-08   -0.39884E-08    48   0.144E-03    0.104E-04
DAV:   3    -0.356436695731E+02   -0.74015E-08   -0.21361E-08    48   0.452E-04    0.576E-05
DAV:   4    -0.356436695825E+02   -0.93901E-08   -0.19060E-08    48   0.260E-04    0.128E-05
DAV:   5    -0.356436695857E+02   -0.32144E-08   -0.18418E-08    48   0.124E-04    0.138E-05
DAV:   6    -0.356436695874E+02   -0.17224E-08   -0.18118E-08    48   0.607E-05
  51 F= -.35643670E+02 E0= -.35643670E+02  d E =-.114351E-06
       N       E                     dE             d eps       ncg     rms          rms(c)
DAV:   1    -0.356436696930E+02   -0.10735E-06   -0.88154E-07    48   0.891E-03    0.243E-04
DAV:   2    -0.356436696982E+02   -0.51743E-08   -0.57100E-08    48   0.201E-03    0.143E-04
DAV:   3    -0.356436697009E+02   -0.26992E-08   -0.21917E-08    48   0.623E-04    0.725E-05
DAV:   4    -0.356436697028E+02   -0.19129E-08   -0.18207E-08    48   0.328E-04    0.160E-05
DAV:   5    -0.356436697036E+02   -0.82696E-09   -0.17351E-08    48   0.156E-04    0.165E-05
DAV:   6    -0.356436697040E+02   -0.35357E-09   -0.17029E-08    48   0.797E-05
  52 F= -.35643670E+02 E0= -.35643670E+02  d E =-.116591E-06
       N       E                     dE             d eps       ncg     rms          rms(c)
DAV:   1    -0.356436698367E+02   -0.13302E-06   -0.13031E-06    48   0.108E-02    0.292E-04
DAV:   2    -0.356436698413E+02   -0.46027E-08   -0.72510E-08    48   0.240E-03    0.169E-04
DAV:   3    -0.356436698424E+02   -0.11619E-08   -0.23212E-08    48   0.743E-04    0.738E-05
DAV:   4    -0.356436698425E+02   -0.11823E-09   -0.18159E-08    48   0.353E-04    0.186E-05
DAV:   5    -0.356436698427E+02   -0.14757E-09   -0.17035E-08    48   0.174E-04    0.155E-05
DAV:   6    -0.356436698429E+02   -0.18417E-09   -0.16644E-08    48   0.942E-05
  53 F= -.35643670E+02 E0= -.35643670E+02  d E =-.138877E-06
       N       E                     dE             d eps       ncg     rms          rms(c)
DAV:   1    -0.356436700116E+02   -0.16893E-06   -0.16282E-06    48   0.122E-02    0.328E-04
DAV:   2    -0.356436700159E+02   -0.42646E-08   -0.82829E-08    48   0.265E-03    0.184E-04
DAV:   3    -0.356436700166E+02   -0.67371E-09   -0.24449E-08    48   0.825E-04    0.729E-05
DAV:   4    -0.356436700165E+02    0.68212E-10   -0.18286E-08    48   0.372E-04    0.240E-05
DAV:   5    -0.356436700165E+02    0.61391E-11   -0.16908E-08    48   0.190E-04    0.128E-05
DAV:   6    -0.356436700165E+02   -0.34333E-10   -0.16509E-08    48   0.106E-04
  54 F= -.35643670E+02 E0= -.35643670E+02  d E =-.173646E-06
       N       E                     dE             d eps       ncg     rms          rms(c)
DAV:   1    -0.356436702220E+02   -0.20554E-06   -0.19428E-06    48   0.134E-02    0.350E-04
DAV:   2    -0.356436702262E+02   -0.41439E-08   -0.94685E-08    48   0.293E-03    0.196E-04
DAV:   3    -0.356436702269E+02   -0.72919E-09   -0.26057E-08    48   0.915E-04    0.826E-05
DAV:   4    -0.356436702269E+02   -0.44565E-10   -0.18574E-08    48   0.413E-04    0.314E-05
DAV:   5    -0.356436702268E+02    0.11232E-09   -0.16941E-08    48   0.209E-04    0.134E-05
DAV:   6    -0.356436702268E+02    0.68667E-10   -0.16458E-08    48   0.120E-04
  55 F= -.35643670E+02 E0= -.35643670E+02  d E =-.210240E-06
       N       E                     dE             d eps       ncg     rms          rms(c)
DAV:   1    -0.356436704878E+02   -0.26099E-06   -0.30820E-06    48   0.170E-02    0.423E-04
DAV:   2    -0.356436704953E+02   -0.74920E-08   -0.14357E-07    48   0.378E-03    0.242E-04
DAV:   3    -0.356436704965E+02   -0.11569E-08   -0.32134E-08    48   0.117E-03    0.112E-04
DAV:   4    -0.356436704966E+02   -0.97543E-10   -0.20203E-08    48   0.538E-04    0.431E-05
DAV:   5    -0.356436704966E+02   -0.28422E-10   -0.17369E-08    48   0.266E-04    0.206E-05
DAV:   6    -0.356436704966E+02   -0.61618E-10   -0.16598E-08    48   0.156E-04
  56 F= -.35643670E+02 E0= -.35643670E+02  d E =-.269890E-06
       N       E                     dE             d eps       ncg     rms          rms(c)
DAV:   1    -0.356436708151E+02   -0.31849E-06   -0.50425E-06    48   0.218E-02    0.519E-04
DAV:   2    -0.356436708294E+02   -0.14370E-07   -0.22946E-07    48   0.490E-03    0.303E-04
DAV:   3    -0.356436708320E+02   -0.25334E-08   -0.42615E-08    48   0.151E-03    0.147E-04
DAV:   4    -0.356436708324E+02   -0.39518E-09   -0.22863E-08    48   0.700E-04    0.538E-05
DAV:   5    -0.356436708325E+02   -0.17167E-09   -0.18135E-08    48   0.345E-04    0.291E-05
DAV:   6    -0.356436708326E+02   -0.24102E-10   -0.16842E-08    48   0.204E-04
  57 F= -.35643671E+02 E0= -.35643671E+02  d E =-.335926E-06
       N       E                     dE             d eps       ncg     rms          rms(c)
DAV:   1    -0.356436712133E+02   -0.38080E-06   -0.82237E-06    48   0.278E-02    0.637E-04
DAV:   2    -0.356436712403E+02   -0.26990E-07   -0.36980E-07    48   0.630E-03    0.374E-04
DAV:   3    -0.356436712458E+02   -0.54185E-08   -0.59414E-08    48   0.192E-03    0.184E-04
DAV:   4    -0.356436712468E+02   -0.10662E-08   -0.26984E-08    48   0.889E-04    0.596E-05
DAV:   5    -0.356436712471E+02   -0.22806E-09   -0.19448E-08    48   0.440E-04    0.367E-05
DAV:   6    -0.356436712470E+02    0.93905E-10   -0.17338E-08    48   0.259E-04
  58 F= -.35643671E+02 E0= -.35643671E+02  d E =-.414390E-06
       N       E                     dE             d eps       ncg     rms          rms(c)
DAV:   1    -0.356436716911E+02   -0.44405E-06   -0.13336E-05    48   0.353E-02    0.788E-04
DAV:   2    -0.356436717393E+02   -0.48195E-07   -0.59772E-07    48   0.806E-03    0.466E-04
DAV:   3    -0.356436717489E+02   -0.96313E-08   -0.86083E-08    48   0.243E-03    0.233E-04
DAV:   4    -0.356436717510E+02   -0.20673E-08   -0.33514E-08    48   0.113E-03    0.630E-05
DAV:   5    -0.356436717511E+02   -0.11369E-09   -0.21550E-08    48   0.559E-04    0.449E-05
DAV:   6    -0.356436717511E+02    0.19554E-10   -0.17999E-08    48   0.326E-04
  59 F= -.35643672E+02 E0= -.35643672E+02  d E =-.504132E-06
       N       E                     dE             d eps       ncg     rms          rms(c)
DAV:   1    -0.356436722484E+02   -0.49730E-06   -0.21156E-05    48   0.444E-02    0.976E-04
DAV:   2    -0.356436723259E+02   -0.77525E-07   -0.94354E-07    48   0.102E-02    0.582E-04
DAV:   3    -0.356436723418E+02   -0.15841E-07   -0.12621E-07    48   0.305E-03    0.293E-04
DAV:   4    -0.356436723454E+02   -0.36744E-08   -0.43343E-08    48   0.141E-03    0.721E-05
DAV:   5    -0.356436723458E+02   -0.35493E-09   -0.24663E-08    48   0.700E-04    0.558E-05
DAV:   6    -0.356436723457E+02    0.67303E-10   -0.19003E-08    48   0.406E-04
  60 F= -.35643672E+02 E0= -.35643672E+02  d E =-.594643E-06
       N       E                     dE             d eps       ncg     rms          rms(c)
DAV:   1    -0.356436728788E+02   -0.53297E-06   -0.32169E-05    48   0.546E-02    0.120E-03
DAV:   2    -0.356436729931E+02   -0.11436E-06   -0.14118E-06    48   0.125E-02    0.718E-04
DAV:   3    -0.356436730161E+02   -0.22924E-07   -0.18006E-07    48   0.373E-03    0.355E-04
DAV:   4    -0.356436730218E+02   -0.57396E-08   -0.56750E-08    48   0.172E-03    0.911E-05
DAV:   5    -0.356436730228E+02   -0.10343E-08   -0.28720E-08    48   0.850E-04    0.687E-05
DAV:   6    -0.356436730233E+02   -0.49818E-09   -0.20319E-08    48   0.495E-04
  61 F= -.35643673E+02 E0= -.35643673E+02  d E =-.677596E-06
       N       E                     dE             d eps       ncg     rms          rms(c)
DAV:   1    -0.356436735612E+02   -0.53840E-06   -0.46884E-05    48   0.658E-02    0.147E-03
DAV:   2    -0.356436737189E+02   -0.15764E-06   -0.20122E-06    48   0.150E-02    0.879E-04
DAV:   3    -0.356436737505E+02   -0.31581E-07   -0.24728E-07    48   0.446E-03    0.421E-04
DAV:   4    -0.356436737588E+02   -0.83121E-08   -0.73433E-08    48   0.205E-03    0.115E-04
DAV:   5    -0.356436737609E+02   -0.21539E-08   -0.33753E-08    48   0.101E-03    0.833E-05
DAV:   6    -0.356436737619E+02   -0.10009E-08   -0.21984E-08    48   0.588E-04
  62 F= -.35643674E+02 E0= -.35643674E+02  d E =-.738590E-06
       N       E                     dE             d eps       ncg     rms          rms(c)
DAV:   1    -0.356436742502E+02   -0.48929E-06   -0.64554E-05    48   0.769E-02    0.179E-03
DAV:   2    -0.356436744546E+02   -0.20437E-06   -0.26844E-06    48   0.174E-02    0.105E-03
DAV:   3    -0.356436745008E+02   -0.46223E-07   -0.31907E-07    48   0.513E-03    0.456E-04
DAV:   4    -0.356436745117E+02   -0.10873E-07   -0.89249E-08    48   0.230E-03    0.118E-04
DAV:   5    -0.356436745146E+02   -0.29609E-08   -0.38821E-08    48   0.114E-03    0.809E-05
DAV:   6    -0.356436745161E+02   -0.14782E-08   -0.23587E-08    48   0.665E-04
  63 F= -.35643675E+02 E0= -.35643675E+02  d E =-.754196E-06
       N       E                     dE             d eps       ncg     rms          rms(c)
DAV:   1    -0.356436748749E+02   -0.36024E-06   -0.86859E-05    64   0.884E-02    0.221E-03
DAV:   2    -0.356436751288E+02   -0.25387E-06   -0.35123E-06    48   0.198E-02    0.126E-03
DAV:   3    -0.356436751951E+02   -0.66345E-07   -0.40386E-07    48   0.584E-03    0.493E-04
DAV:   4    -0.356436752092E+02   -0.14130E-07   -0.10773E-07    48   0.257E-03    0.130E-04
DAV:   5    -0.356436752128E+02   -0.35750E-08   -0.44638E-08    48   0.128E-03    0.806E-05
DAV:   6    -0.356436752151E+02   -0.23119E-08   -0.25390E-08    48   0.740E-04
  64 F= -.35643675E+02 E0= -.35643675E+02  d E =-.698997E-06
       N       E                     dE             d eps       ncg     rms          rms(c)
DAV:   1    -0.356436757776E+02   -0.56482E-06   -0.13186E-04    96   0.105E-01    0.273E-03
DAV:   2    -0.356436757271E+02    0.50504E-07   -0.11900E-06    48   0.897E-03    0.172E-03
DAV:   3    -0.356436757713E+02   -0.44209E-07   -0.22800E-07    48   0.401E-03    0.306E-04
DAV:   4    -0.356436757776E+02   -0.62431E-08   -0.56758E-08    48   0.161E-03    0.165E-04
DAV:   5    -0.356436757838E+02   -0.62773E-08   -0.27212E-08    48   0.784E-04    0.423E-05
DAV:   6    -0.356436757885E+02   -0.46243E-08   -0.19435E-08    48   0.443E-04
  65 F= -.35643676E+02 E0= -.35643676E+02  d E =-.573359E-06
       N       E                     dE             d eps       ncg     rms          rms(c)
DAV:   1    -0.356436759777E+02   -0.19388E-06   -0.23706E-04    96   0.137E-01    0.383E-03
DAV:   2    -0.356436758721E+02    0.10566E-06   -0.22024E-06    48   0.123E-02    0.239E-03
DAV:   3    -0.356436759618E+02   -0.89757E-07   -0.41895E-07    52   0.558E-03    0.430E-04
DAV:   4    -0.356436759719E+02   -0.10094E-07   -0.94384E-08    48   0.222E-03    0.238E-04
DAV:   5    -0.356436759824E+02   -0.10532E-07   -0.36249E-08    48   0.102E-03    0.696E-05
DAV:   6    -0.356436759906E+02   -0.81084E-08   -0.22461E-08    48   0.572E-04
  66 F= -.35643676E+02 E0= -.35643676E+02  d E =-.202086E-06
       N       E                     dE             d eps       ncg     rms          rms(c)
DAV:   1    -0.356436753471E+02    0.63530E-06   -0.55208E-04    96   0.208E-01    0.582E-03
DAV:   2    -0.356436752109E+02    0.13627E-06   -0.56735E-06    64   0.201E-02    0.362E-03
DAV:   3    -0.356436754136E+02   -0.20267E-06   -0.94328E-07    56   0.865E-03    0.652E-04
DAV:   4    -0.356436754414E+02   -0.27846E-07   -0.21386E-07    48   0.355E-03    0.368E-04
DAV:   5    -0.356436754593E+02   -0.17910E-07   -0.67039E-08    48   0.164E-03    0.116E-04
DAV:   6    -0.356436754744E+02   -0.15046E-07   -0.33607E-08    48   0.906E-04
  67 F= -.35643675E+02 E0= -.35643675E+02  d E =0.516203E-06
       N       E                     dE             d eps       ncg     rms          rms(c)
DAV:   1    -0.356436729079E+02    0.25514E-05   -0.15456E-03    96   0.348E-01    0.943E-03
DAV:   2    -0.356436728076E+02    0.10036E-06   -0.16443E-05    64   0.341E-02    0.587E-03
DAV:   3    -0.356436733204E+02   -0.51282E-06   -0.26113E-06    64   0.146E-02    0.120E-03
DAV:   4    -0.356436734206E+02   -0.10016E-06   -0.61224E-07    48   0.627E-03    0.584E-04
DAV:   5    -0.356436734676E+02   -0.47037E-07   -0.17497E-07    48   0.297E-03    0.178E-04
DAV:   6    -0.356436735016E+02   -0.33942E-07   -0.71916E-08    48   0.163E-03
  68 F= -.35643674E+02 E0= -.35643674E+02  d E =0.197280E-05
       N       E                     dE             d eps       ncg     rms          rms(c)
DAV:   1    -0.356436667726E+02    0.66950E-05   -0.46967E-03    96   0.609E-01    0.159E-02
DAV:   2    -0.356436669699E+02   -0.19726E-06   -0.49628E-05    64   0.604E-02    0.990E-03
DAV:   3    -0.356436684559E+02   -0.14860E-05   -0.78862E-06    68   0.257E-02    0.216E-03
DAV:   4    -0.356436687795E+02   -0.32365E-06   -0.19151E-06    48   0.113E-02    0.982E-04
DAV:   5    -0.356436689098E+02   -0.13023E-06   -0.53431E-07    48   0.542E-03    0.320E-04
DAV:   6    -0.356436690001E+02   -0.90285E-07   -0.20149E-07    48   0.300E-03
  69 F= -.35643669E+02 E0= -.35643669E+02  d E =0.450150E-05
       N       E                     dE             d eps       ncg     rms          rms(c)
DAV:   1    -0.356436515443E+02    0.17365E-04   -0.14495E-02    96   0.108E+00    0.272E-02
DAV:   2    -0.356436529277E+02   -0.13834E-05   -0.15192E-04    80   0.105E-01    0.170E-02
DAV:   3    -0.356436574693E+02   -0.45416E-05   -0.24030E-05    80   0.449E-02    0.385E-03
DAV:   4    -0.356436585292E+02   -0.10598E-05   -0.59812E-06    48   0.199E-02    0.169E-03
DAV:   5    -0.356436589216E+02   -0.39241E-06   -0.16554E-06    48   0.960E-03    0.571E-04
DAV:   6    -0.356436591534E+02   -0.23185E-06   -0.60539E-07    48   0.531E-03
  70 F= -.35643659E+02 E0= -.35643659E+02  d E =0.984662E-05
       N       E                     dE             d eps       ncg     rms          rms(c)
DAV:   1    -0.356436134933E+02    0.45428E-04   -0.43987E-02    96   0.188E+00    0.466E-02
DAV:   2    -0.356436270024E+02   -0.13509E-04   -0.53530E-04   112   0.184E-01    0.304E-02
DAV:   3    -0.356436326303E+02   -0.56279E-05   -0.24227E-05    80   0.525E-02    0.838E-03
DAV:   4    -0.356436366801E+02   -0.40498E-05   -0.10604E-05    56   0.265E-02    0.371E-03
DAV:   5    -0.356436375118E+02   -0.83165E-06   -0.17864E-06    56   0.118E-02    0.100E-03
DAV:   6    -0.356436380173E+02   -0.50555E-06   -0.37241E-07    48   0.471E-03
  71 F= -.35643638E+02 E0= -.35643638E+02  d E =0.211361E-04
       N       E                     dE             d eps       ncg     rms          rms(c)
DAV:   1    -0.356435221782E+02    0.11533E-03   -0.12769E-01    96   0.319E+00    0.787E-02
DAV:   2    -0.356435697957E+02   -0.47617E-04   -0.15453E-03   112   0.318E-01    0.513E-02
DAV:   3    -0.356435797625E+02   -0.99668E-05   -0.69210E-05    80   0.888E-02    0.145E-02
DAV:   4    -0.356435924203E+02   -0.12658E-04   -0.30658E-05    64   0.451E-02    0.627E-03
DAV:   5    -0.356435949130E+02   -0.24927E-05   -0.53097E-06    64   0.202E-02    0.168E-03
DAV:   6    -0.356435962426E+02   -0.13296E-05   -0.10834E-06    48   0.806E-03
  72 F= -.35643596E+02 E0= -.35643596E+02  d E =0.417747E-04
       N       E                     dE             d eps       ncg     rms          rms(c)
DAV:   1    -0.356432817439E+02    0.31317E-03   -0.34773E-01    96   0.525E+00    0.130E-01
DAV:   2    -0.356434365867E+02   -0.15484E-03   -0.42203E-03   112   0.520E-01    0.847E-02
DAV:   3    -0.356434424856E+02   -0.58989E-05   -0.22194E-04   112   0.147E-01    0.248E-02
DAV:   4    -0.356434743455E+02   -0.31860E-04   -0.53921E-05    76   0.603E-02    0.101E-02
DAV:   5    -0.356434804508E+02   -0.61053E-05   -0.76572E-06    64   0.250E-02    0.364E-03
DAV:   6    -0.356434841089E+02   -0.36580E-05   -0.15475E-06    48   0.106E-02
  73 F= -.35643484E+02 E0= -.35643484E+02  d E =0.112134E-03
       N       E                     dE             d eps       ncg     rms          rms(c)
DAV:   1    -0.356405488808E+02    0.29316E-02   -0.97983E-01    96   0.899E+00    0.252E-01
DAV:   2    -0.356409129164E+02   -0.36404E-03   -0.14921E-02   128   0.101E+00    0.163E-01
DAV:   3    -0.356406742514E+02    0.23866E-03   -0.10084E-03   128   0.313E-01    0.805E-02
DAV:   4    -0.356407750654E+02   -0.10081E-03   -0.38153E-04   128   0.182E-01    0.253E-02
DAV:   5    -0.356407934008E+02   -0.18335E-04   -0.50630E-05    80   0.710E-02    0.981E-03
DAV:   6    -0.356408036642E+02   -0.10263E-04   -0.12591E-05    72   0.319E-02
  74 F= -.35640804E+02 E0= -.35640804E+02  d E =0.268044E-02
       N       E                     dE             d eps       ncg     rms          rms(c)
DAV:   1    -0.356398447679E+02    0.94863E-03   -0.66461E-01    96   0.775E+00    0.419E-01
DAV:   2    -0.356383364036E+02    0.15084E-02   -0.17827E-02   128   0.122E+00    0.190E-01
DAV:   3    -0.356376733300E+02    0.66307E-03   -0.28572E-03   128   0.512E-01    0.890E-02
DAV:   4    -0.356376461756E+02    0.27154E-04   -0.73100E-04   112   0.270E-01    0.284E-02
DAV:   5    -0.356376484935E+02   -0.23179E-05   -0.58150E-05    96   0.798E-02    0.128E-02
DAV:   6    -0.356376545035E+02   -0.60100E-05   -0.16117E-05    64   0.364E-02
  75 F= -.35637655E+02 E0= -.35637655E+02  d E =0.314916E-02
       N       E                     dE             d eps       ncg     rms          rms(c)
DAV:   1    -0.356427622103E+02   -0.51137E-02   -0.85465E-02    96   0.277E+00    0.150E-01
DAV:   2    -0.356425953602E+02    0.16685E-03   -0.23483E-03   128   0.439E-01    0.682E-02
DAV:   3    -0.356425191774E+02    0.76183E-04   -0.35242E-04   128   0.180E-01    0.326E-02
DAV:   4    -0.356425267713E+02   -0.75939E-05   -0.87885E-05    64   0.986E-02    0.998E-03
DAV:   5    -0.356425331617E+02   -0.63904E-05   -0.13281E-05    96   0.370E-02    0.385E-03
DAV:   6    -0.356425360419E+02   -0.28802E-05   -0.24279E-06    64   0.156E-02
  76 F= -.35642536E+02 E0= -.35642536E+02  d E =-.488154E-02
       N       E                     dE             d eps       ncg     rms          rms(c)
DAV:   1    -0.356428495082E+02   -0.31635E-03   -0.16940E-01    96   0.391E+00    0.209E-01
DAV:   2    -0.356424847076E+02    0.36480E-03   -0.47070E-03   128   0.618E-01    0.959E-02
DAV:   3    -0.356423145236E+02    0.17018E-03   -0.72209E-04   128   0.256E-01    0.455E-02
DAV:   4    -0.356423057428E+02    0.87808E-05   -0.17629E-04    80   0.140E-01    0.145E-02
DAV:   5    -0.356423047059E+02    0.10369E-05   -0.26940E-05    96   0.530E-02    0.578E-03
DAV:   6    -0.356423051772E+02   -0.47125E-06   -0.50151E-06    64   0.224E-02
  77 F= -.35642305E+02 E0= -.35642305E+02  d E =0.230865E-03
       N       E                     dE             d eps       ncg     rms          rms(c)
DAV:   1    -0.356426418153E+02   -0.33711E-03   -0.11403E-03   116   0.322E-01    0.165E-02
DAV:   2    -0.356426428653E+02   -0.10500E-05   -0.27607E-05    64   0.506E-02    0.786E-03
DAV:   3    -0.356426454937E+02   -0.26284E-05   -0.76462E-06    72   0.275E-02    0.341E-03
DAV:   4    -0.356426500792E+02   -0.45855E-05   -0.32741E-06    64   0.170E-02    0.124E-03
DAV:   5    -0.356426533949E+02   -0.33158E-05   -0.65722E-07    64   0.784E-03    0.579E-04
DAV:   6    -0.356426556746E+02   -0.22797E-05   -0.19710E-07    48   0.384E-03
  78 F= -.35642656E+02 E0= -.35642656E+02  d E =-.350497E-03
       N       E                     dE             d eps       ncg     rms          rms(c)
DAV:   1    -0.356431280998E+02   -0.47470E-03   -0.39559E-03    96   0.599E-01    0.311E-02
DAV:   2    -0.356431200474E+02    0.80525E-05   -0.95706E-05    96   0.948E-02    0.146E-02
DAV:   3    -0.356431182986E+02    0.17488E-05   -0.26773E-05    64   0.512E-02    0.624E-03
DAV:   4    -0.356431202241E+02   -0.19256E-05   -0.11364E-05    80   0.320E-02    0.226E-03
DAV:   5    -0.356431212342E+02   -0.10101E-05   -0.21292E-06    80   0.143E-02    0.114E-03
DAV:   6    -0.356431218413E+02   -0.60706E-06   -0.38789E-07    64   0.635E-03
  79 F= -.35643122E+02 E0= -.35643122E+02  d E =-.466167E-03
       N       E                     dE             d eps       ncg     rms          rms(c)
DAV:   1    -0.356434541330E+02   -0.33290E-03   -0.66705E-03    96   0.778E-01    0.398E-02
DAV:   2    -0.356434404020E+02    0.13731E-04   -0.18842E-04    96   0.123E-01    0.186E-02
DAV:   3    -0.356434335089E+02    0.68931E-05   -0.22908E-05    96   0.497E-02    0.907E-03
DAV:   4    -0.356434334806E+02    0.28293E-07   -0.17736E-05    64   0.412E-02    0.340E-03
DAV:   5    -0.356434335335E+02   -0.52838E-07   -0.31012E-06    96   0.181E-02    0.174E-03
DAV:   6    -0.356434336543E+02   -0.12080E-06   -0.67376E-07    64   0.752E-03
  80 F= -.35643434E+02 E0= -.35643434E+02  d E =-.311813E-03
       N       E                     dE             d eps       ncg     rms          rms(c)
DAV:   1    -0.356434493321E+02   -0.15799E-04   -0.73313E-03    96   0.815E-01    0.405E-02
DAV:   2    -0.356434349388E+02    0.14393E-04   -0.20324E-04   128   0.126E-01    0.193E-02
DAV:   3    -0.356434272720E+02    0.76668E-05   -0.23435E-05    64   0.507E-02    0.951E-03
DAV:   4    -0.356434271073E+02    0.16472E-06   -0.19305E-05    96   0.429E-02    0.355E-03
DAV:   5    -0.356434273241E+02   -0.21680E-06   -0.34065E-06    64   0.190E-02    0.185E-03
DAV:   6    -0.356434277183E+02   -0.39426E-06   -0.73486E-07    48   0.786E-03
  81 F= -.35643428E+02 E0= -.35643428E+02  d E =0.593593E-05
       N       E                     dE             d eps       ncg     rms          rms(c)
DAV:   1    -0.356434312217E+02   -0.38976E-05   -0.51666E-06    64   0.221E-02    0.733E-04
DAV:   2    -0.356434315980E+02   -0.37627E-06   -0.36879E-07    48   0.582E-03    0.543E-04
DAV:   3    -0.356434319970E+02   -0.39902E-06   -0.80472E-08    64   0.220E-03    0.326E-04
DAV:   4    -0.356434325669E+02   -0.56993E-06   -0.57742E-08    72   0.139E-03    0.145E-04
DAV:   5    -0.356434330099E+02   -0.44296E-06   -0.40789E-08    48   0.788E-04    0.867E-05
DAV:   6    -0.356434335149E+02   -0.50498E-06   -0.42136E-08    96   0.663E-04
  82 F= -.35643434E+02 E0= -.35643434E+02  d E =-.579655E-05
       N       E                     dE             d eps       ncg     rms          rms(c)
DAV:   1    -0.356434394711E+02   -0.64612E-05   -0.19884E-05    64   0.426E-02    0.130E-03
DAV:   2    -0.356434396850E+02   -0.21392E-06   -0.11398E-06    48   0.105E-02    0.810E-04
DAV:   3    -0.356434398014E+02   -0.11636E-06   -0.15584E-07    48   0.332E-03    0.576E-04
DAV:   4    -0.356434399896E+02   -0.18819E-06   -0.76334E-08    96   0.233E-03    0.179E-04
DAV:   5    -0.356434400902E+02   -0.10059E-06   -0.43702E-08    48   0.117E-03    0.140E-04
DAV:   6    -0.356434401708E+02   -0.80608E-07   -0.29364E-08    48   0.591E-04
  83 F= -.35643440E+02 E0= -.35643440E+02  d E =-.665589E-05
       N       E                     dE             d eps       ncg     rms          rms(c)
DAV:   1    -0.356434473784E+02   -0.72883E-05   -0.43391E-05    64   0.629E-02    0.192E-03
DAV:   2    -0.356434475820E+02   -0.20353E-06   -0.24388E-06    48   0.154E-02    0.120E-03
DAV:   3    -0.356434476273E+02   -0.45380E-07   -0.30245E-07    88   0.488E-03    0.849E-04
DAV:   4    -0.356434476886E+02   -0.61280E-07   -0.13024E-07    64   0.345E-03    0.260E-04
DAV:   5    -0.356434477211E+02   -0.32453E-07   -0.59239E-08    48   0.172E-03    0.208E-04
DAV:   6    -0.356434477456E+02   -0.24521E-07   -0.28389E-08    48   0.841E-04
  84 F= -.35643448E+02 E0= -.35643448E+02  d E =-.757481E-05
       N       E                     dE             d eps       ncg     rms          rms(c)
DAV:   1    -0.356434552563E+02   -0.75352E-05   -0.73842E-05    72   0.819E-02    0.246E-03
DAV:   2    -0.356434555276E+02   -0.27128E-06   -0.41064E-06    64   0.201E-02    0.154E-03
DAV:   3    -0.356434555486E+02   -0.21059E-07   -0.49311E-07    48   0.633E-03    0.109E-03
DAV:   4    -0.356434555565E+02   -0.78560E-08   -0.19687E-07    72   0.441E-03    0.336E-04
DAV:   5    -0.356434555657E+02   -0.91879E-08   -0.80954E-08    48   0.221E-03    0.266E-04
DAV:   6    -0.356434555732E+02   -0.74685E-08   -0.30515E-08    48   0.108E-03
  85 F= -.35643456E+02 E0= -.35643456E+02  d E =-.782758E-05
       N       E                     dE             d eps       ncg     rms          rms(c)
DAV:   1    -0.356434622060E+02   -0.66403E-05   -0.10922E-04    48   0.992E-02    0.293E-03
DAV:   2    -0.356434625958E+02   -0.38982E-06   -0.60164E-06    56   0.243E-02    0.184E-03
DAV:   3    -0.356434626232E+02   -0.27361E-07   -0.71888E-07    48   0.765E-03    0.129E-03
DAV:   4    -0.356434626270E+02   -0.38206E-08   -0.27224E-07    48   0.522E-03    0.399E-04
DAV:   5    -0.356434626358E+02   -0.87446E-08   -0.10835E-07    48   0.261E-03    0.314E-04
DAV:   6    -0.356434626425E+02   -0.66809E-08   -0.36518E-08    48   0.129E-03
  86 F= -.35643463E+02 E0= -.35643463E+02  d E =-.706929E-05
       N       E                     dE             d eps       ncg     rms          rms(c)
DAV:   1    -0.356434680376E+02   -0.54018E-05   -0.15441E-04    80   0.115E-01    0.370E-03
DAV:   2    -0.356434679323E+02    0.10529E-06   -0.25923E-06    64   0.144E-02    0.215E-03
DAV:   3    -0.356434679068E+02    0.25495E-07   -0.52172E-07    48   0.681E-03    0.107E-03
DAV:   4    -0.356434679355E+02   -0.28670E-07   -0.23267E-07    48   0.434E-03    0.425E-04
DAV:   5    -0.356434679477E+02   -0.12177E-07   -0.59774E-08    48   0.201E-03    0.188E-04
DAV:   6    -0.356434679624E+02   -0.14727E-07   -0.27426E-08    48   0.894E-04
  87 F= -.35643468E+02 E0= -.35643468E+02  d E =-.531993E-05
       N       E                     dE             d eps       ncg     rms          rms(c)
DAV:   1    -0.356434710861E+02   -0.31385E-05   -0.24237E-04    96   0.143E-01    0.438E-03
DAV:   2    -0.356434709766E+02    0.10948E-06   -0.37633E-06    64   0.173E-02    0.259E-03
DAV:   3    -0.356434709599E+02    0.16688E-07   -0.70889E-07    48   0.794E-03    0.128E-03
DAV:   4    -0.356434710086E+02   -0.48637E-07   -0.30394E-07    48   0.498E-03    0.502E-04
DAV:   5    -0.356434710244E+02   -0.15782E-07   -0.74102E-08    48   0.232E-03    0.209E-04
DAV:   6    -0.356434710424E+02   -0.18000E-07   -0.31038E-08    48   0.103E-03
  88 F= -.35643471E+02 E0= -.35643471E+02  d E =-.307997E-05
       N       E                     dE             d eps       ncg     rms          rms(c)
DAV:   1    -0.356434708508E+02    0.17358E-06   -0.37191E-04    96   0.176E-01    0.511E-03
DAV:   2    -0.356434707437E+02    0.10703E-06   -0.52947E-06    64   0.204E-02    0.305E-03
DAV:   3    -0.356434707498E+02   -0.60560E-08   -0.95550E-07    48   0.919E-03    0.145E-03
DAV:   4    -0.356434708248E+02   -0.75027E-07   -0.38647E-07    48   0.559E-03    0.579E-04
DAV:   5    -0.356434708452E+02   -0.20374E-07   -0.92622E-08    48   0.262E-03    0.223E-04
DAV:   6    -0.356434708677E+02   -0.22483E-07   -0.36481E-08    48   0.118E-03
  89 F= -.35643471E+02 E0= -.35643471E+02  d E =0.174667E-06
       N       E                     dE             d eps       ncg     rms          rms(c)
DAV:   1    -0.356434672449E+02    0.36003E-05   -0.56349E-04    96   0.214E-01    0.587E-03
DAV:   2    -0.356434671556E+02    0.89358E-07   -0.72342E-06    64   0.236E-02    0.356E-03
DAV:   3    -0.356434672276E+02   -0.72095E-07   -0.12478E-06    48   0.104E-02    0.154E-03
DAV:   4    -0.356434673352E+02   -0.10759E-06   -0.45872E-07    48   0.598E-03    0.630E-04
DAV:   5    -0.356434673625E+02   -0.27283E-07   -0.11211E-07    48   0.282E-03    0.232E-04
DAV:   6    -0.356434673916E+02   -0.29081E-07   -0.44206E-08    48   0.133E-03
  90 F= -.35643467E+02 E0= -.35643467E+02  d E =0.347608E-05
       N       E                     dE             d eps       ncg     rms          rms(c)
DAV:   1    -0.356434612638E+02    0.60988E-05   -0.85678E-04    96   0.262E-01    0.678E-03
DAV:   2    -0.356434611996E+02    0.64109E-07   -0.99151E-06    64   0.273E-02    0.416E-03
DAV:   3    -0.356434614174E+02   -0.21771E-06   -0.16345E-06    48   0.118E-02    0.150E-03
DAV:   4    -0.356434615534E+02   -0.13602E-06   -0.52174E-07    48   0.614E-03    0.636E-04
DAV:   5    -0.356434615904E+02   -0.36978E-07   -0.13428E-07    48   0.290E-03    0.252E-04
DAV:   6    -0.356434616290E+02   -0.38644E-07   -0.56008E-08    48   0.152E-03
  91 F= -.35643462E+02 E0= -.35643462E+02  d E =0.576260E-05
       N       E                     dE             d eps       ncg     rms          rms(c)
DAV:   1    -0.356434552847E+02    0.63057E-05   -0.13255E-03    96   0.323E-01    0.804E-03
DAV:   2    -0.356434552180E+02    0.66649E-07   -0.14254E-05    64   0.323E-02    0.501E-03
DAV:   3    -0.356434557108E+02   -0.49275E-06   -0.22720E-06    48   0.138E-02    0.138E-03
DAV:   4    -0.356434558609E+02   -0.15018E-06   -0.63026E-07    48   0.645E-03    0.601E-04
DAV:   5    -0.356434559153E+02   -0.54360E-07   -0.17512E-07    48   0.307E-03    0.241E-04
DAV:   6    -0.356434559644E+02   -0.49126E-07   -0.72886E-08    48   0.170E-03
  92 F= -.35643456E+02 E0= -.35643456E+02  d E =0.566457E-05
       N       E                     dE             d eps       ncg     rms          rms(c)
DAV:   1    -0.356434520719E+02    0.38434E-05   -0.20961E-03    96   0.405E-01    0.997E-03
DAV:   2    -0.356434519885E+02    0.83387E-07   -0.22043E-05    64   0.399E-02    0.627E-03
DAV:   3    -0.356434528209E+02   -0.83246E-06   -0.34797E-06    64   0.169E-02    0.152E-03
DAV:   4    -0.356434530218E+02   -0.20090E-06   -0.90429E-07    48   0.760E-03    0.657E-04
DAV:   5    -0.356434531093E+02   -0.87450E-07   -0.25897E-07    48   0.362E-03    0.243E-04
DAV:   6    -0.356434531734E+02   -0.64143E-07   -0.10178E-07    48   0.199E-03
  93 F= -.35643453E+02 E0= -.35643453E+02  d E =0.279100E-05
       N       E                     dE             d eps       ncg     rms          rms(c)
DAV:   1    -0.356434509680E+02    0.21413E-05   -0.33640E-03    96   0.514E-01    0.127E-02
DAV:   2    -0.356434508963E+02    0.71725E-07   -0.35831E-05    64   0.509E-02    0.801E-03
DAV:   3    -0.356434520961E+02   -0.11998E-05   -0.56830E-06    72   0.217E-02    0.212E-03
DAV:   4    -0.356434524511E+02   -0.35496E-06   -0.14820E-06    48   0.987E-03    0.926E-04
DAV:   5    -0.356434525821E+02   -0.13103E-06   -0.40552E-07    48   0.464E-03    0.347E-04
DAV:   6    -0.356434526774E+02   -0.95266E-07   -0.15441E-07    48   0.256E-03
  94 F= -.35643453E+02 E0= -.35643453E+02  d E =0.496074E-06
       N       E                     dE             d eps       ncg     rms          rms(c)
DAV:   1    -0.356434474148E+02    0.51673E-05   -0.54069E-03    96   0.653E-01    0.163E-02
DAV:   2    -0.356434473768E+02    0.37973E-07   -0.58411E-05    64   0.652E-02    0.102E-02
DAV:   3    -0.356434490880E+02   -0.17112E-05   -0.93080E-06    64   0.279E-02    0.295E-03
DAV:   4    -0.356434497179E+02   -0.62996E-06   -0.24749E-06    48   0.129E-02    0.128E-03
DAV:   5    -0.356434499206E+02   -0.20269E-06   -0.65108E-07    48   0.604E-03    0.486E-04
DAV:   6    -0.356434500714E+02   -0.15081E-06   -0.24118E-07    48   0.331E-03
  95 F= -.35643450E+02 E0= -.35643450E+02  d E =0.260594E-05
       N       E                     dE             d eps       ncg     rms          rms(c)
DAV:   1    -0.356434367363E+02    0.13184E-04   -0.86204E-03    96   0.824E-01    0.205E-02
DAV:   2    -0.356434369239E+02   -0.18756E-06   -0.92818E-05    64   0.822E-02    0.129E-02
DAV:   3    -0.356434395532E+02   -0.26293E-05   -0.14748E-05    64   0.352E-02    0.367E-03
DAV:   4    -0.356434405454E+02   -0.99222E-06   -0.39075E-06    48   0.163E-02    0.160E-03
DAV:   5    -0.356434408719E+02   -0.32647E-06   -0.10270E-06    48   0.759E-03    0.603E-04
DAV:   6    -0.356434411005E+02   -0.22864E-06   -0.37664E-07    48   0.417E-03
  96 F= -.35643441E+02 E0= -.35643441E+02  d E =0.897092E-05
       N       E                     dE             d eps       ncg     rms          rms(c)
DAV:   1    -0.356434183746E+02    0.22497E-04   -0.13621E-02    96   0.104E+00    0.255E-02
DAV:   2    -0.356434216647E+02   -0.32900E-05   -0.16792E-04    96   0.102E-01    0.167E-02
DAV:   3    -0.356434235356E+02   -0.18709E-05   -0.76393E-06    64   0.292E-02    0.519E-03
DAV:   4    -0.356434251519E+02   -0.16163E-05   -0.34488E-06    48   0.155E-02    0.207E-03
DAV:   5    -0.356434255357E+02   -0.38380E-06   -0.63267E-07    48   0.697E-03    0.692E-04
DAV:   6    -0.356434258201E+02   -0.28442E-06   -0.14395E-07    48   0.290E-03
  97 F= -.35643426E+02 E0= -.35643426E+02  d E =0.152804E-04
       N       E                     dE             d eps       ncg     rms          rms(c)
DAV:   1    -0.356433991353E+02    0.26400E-04   -0.21461E-02    96   0.130E+00    0.317E-02
DAV:   2    -0.356434048820E+02   -0.57467E-05   -0.26217E-04    96   0.128E-01    0.207E-02
DAV:   3    -0.356434082173E+02   -0.33353E-05   -0.11683E-05    64   0.362E-02    0.608E-03
DAV:   4    -0.356434106173E+02   -0.24000E-05   -0.52318E-06    48   0.187E-02    0.256E-03
DAV:   5    -0.356434112231E+02   -0.60584E-06   -0.93991E-07    48   0.844E-03    0.749E-04
DAV:   6    -0.356434116157E+02   -0.39255E-06   -0.20368E-07    48   0.343E-03
  98 F= -.35643412E+02 E0= -.35643412E+02  d E =0.142044E-04
       N       E                     dE             d eps       ncg     rms          rms(c)
DAV:   1    -0.356433809223E+02    0.30301E-04   -0.33173E-02    96   0.162E+00    0.395E-02
DAV:   2    -0.356433906725E+02   -0.97502E-05   -0.40948E-04   112   0.161E-01    0.258E-02
DAV:   3    -0.356433951087E+02   -0.44362E-05   -0.18218E-05    80   0.453E-02    0.786E-03
DAV:   4    -0.356433988979E+02   -0.37892E-05   -0.84165E-06    48   0.240E-02    0.321E-03
DAV:   5    -0.356433998064E+02   -0.90853E-06   -0.15835E-06    64   0.112E-02    0.915E-04
DAV:   6    -0.356434003535E+02   -0.54710E-06   -0.33211E-07    48   0.447E-03
  99 F= -.35643400E+02 E0= -.35643400E+02  d E =0.112622E-04
       N       E                     dE             d eps       ncg     rms          rms(c)
DAV:   1    -0.356433564820E+02    0.43324E-04   -0.49956E-02    96   0.199E+00    0.486E-02
DAV:   2    -0.356433728977E+02   -0.16416E-04   -0.61995E-04   112   0.199E-01    0.318E-02
DAV:   3    -0.356433775235E+02   -0.46258E-05   -0.27676E-05    80   0.560E-02    0.987E-03
DAV:   4    -0.356433835435E+02   -0.60200E-05   -0.13007E-05    56   0.301E-02    0.396E-03
DAV:   5    -0.356433849018E+02   -0.13583E-05   -0.24990E-06    56   0.142E-02    0.117E-03
DAV:   6    -0.356433857423E+02   -0.84048E-06   -0.51954E-07    48   0.565E-03
 100 F= -.35643386E+02 E0= -.35643386E+02  d E =0.146112E-04
       N       E                     dE             d eps       ncg     rms          rms(c)
DAV:   1    -0.356433254589E+02    0.59443E-04   -0.72669E-02    96   0.239E+00    0.584E-02
DAV:   2    -0.356433516502E+02   -0.26191E-04   -0.89289E-04   112   0.238E-01    0.382E-02
DAV:   3    -0.356433580695E+02   -0.64193E-05   -0.39463E-05    80   0.667E-02    0.113E-02
DAV:   4    -0.356433657997E+02   -0.77302E-05   -0.18012E-05    48   0.347E-02    0.469E-03
DAV:   5    -0.356433677946E+02   -0.19949E-05   -0.32750E-06    64   0.159E-02    0.129E-03
DAV:   6    -0.356433689526E+02   -0.11580E-05   -0.67632E-07    48   0.631E-03
 101 F= -.35643369E+02 E0= -.35643369E+02  d E =0.167897E-04
       N       E                     dE             d eps       ncg     rms          rms(c)
DAV:   1    -0.356433008661E+02    0.66928E-04   -0.10273E-01    96   0.284E+00    0.696E-02
DAV:   2    -0.356433400834E+02   -0.39217E-04   -0.12622E-03   112   0.282E-01    0.456E-02
DAV:   3    -0.356433469924E+02   -0.69089E-05   -0.55771E-05    80   0.792E-02    0.136E-02
DAV:   4    -0.356433577339E+02   -0.10742E-04   -0.25422E-05    64   0.413E-02    0.558E-03
DAV:   5    -0.356433603332E+02   -0.25993E-05   -0.45740E-06    56   0.188E-02    0.163E-03
DAV:   6    -0.356433619309E+02   -0.15977E-05   -0.96094E-07    48   0.758E-03
 102 F= -.35643362E+02 E0= -.35643362E+02  d E =0.702170E-05
       N       E                     dE             d eps       ncg     rms          rms(c)
DAV:   1    -0.356432620302E+02    0.98303E-04   -0.14097E-01    96   0.333E+00    0.817E-02
DAV:   2    -0.356433197006E+02   -0.57670E-04   -0.17356E-03   112   0.331E-01    0.534E-02
DAV:   3    -0.356433271414E+02   -0.74408E-05   -0.76551E-05    80   0.925E-02    0.160E-02
DAV:   4    -0.356433413464E+02   -0.14205E-04   -0.35075E-05    64   0.485E-02    0.657E-03
DAV:   5    -0.356433448787E+02   -0.35323E-05   -0.63736E-06    64   0.222E-02    0.189E-03
DAV:   6    -0.356433469708E+02   -0.20921E-05   -0.13462E-06    48   0.901E-03
 103 F= -.35643347E+02 E0= -.35643347E+02  d E =0.149601E-04
       N       E                     dE             d eps       ncg     rms          rms(c)
DAV:   1    -0.356432498135E+02    0.95065E-04   -0.16132E-01    96   0.355E+00    0.867E-02
DAV:   2    -0.356433156010E+02   -0.65788E-04   -0.19961E-03   112   0.355E-01    0.570E-02
DAV:   3    -0.356433218901E+02   -0.62891E-05   -0.91891E-05    80   0.101E-01    0.168E-02
DAV:   4    -0.356433383131E+02   -0.16423E-04   -0.41121E-05    64   0.529E-02    0.711E-03
DAV:   5    -0.356433424146E+02   -0.41015E-05   -0.72782E-06    64   0.237E-02    0.211E-03
DAV:   6    -0.356433449958E+02   -0.25812E-05   -0.15246E-06    48   0.962E-03
 104 F= -.35643345E+02 E0= -.35643345E+02  d E =0.197495E-05
       N       E                     dE             d eps       ncg     rms          rms(c)
DAV:   1    -0.356432036481E+02    0.13877E-03   -0.17954E-01    96   0.375E+00    0.915E-02
DAV:   2    -0.356432798576E+02   -0.76209E-04   -0.22716E-03   112   0.379E-01    0.597E-02
DAV:   3    -0.356432866098E+02   -0.67523E-05   -0.10118E-04    80   0.104E-01    0.187E-02
DAV:   4    -0.356433053990E+02   -0.18789E-04   -0.46561E-05    64   0.563E-02    0.756E-03
DAV:   5    -0.356433105078E+02   -0.51088E-05   -0.90161E-06    64   0.266E-02    0.216E-03
DAV:   6    -0.356433131431E+02   -0.26353E-05   -0.18526E-06    48   0.106E-02
 105 F= -.35643313E+02 E0= -.35643313E+02  d E =0.318527E-04
       N       E                     dE             d eps       ncg     rms          rms(c)
DAV:   1    -0.356433174978E+02   -0.69901E-05   -0.74233E-06    56   0.265E-02    0.130E-03
DAV:   2    -0.356433192348E+02   -0.17370E-05   -0.75754E-07    48   0.764E-03    0.836E-04
DAV:   3    -0.356433211948E+02   -0.19599E-05   -0.20058E-07    48   0.310E-03    0.507E-04
DAV:   4    -0.356433245039E+02   -0.33091E-05   -0.20572E-07    84   0.276E-03    0.209E-04
DAV:   5    -0.356433255032E+02   -0.99935E-06   -0.75846E-08    48   0.152E-03    0.185E-04
DAV:   6    -0.356433279611E+02   -0.24578E-05   -0.12342E-07    88   0.143E-03
 106 F= -.35643328E+02 E0= -.35643328E+02  d E =-.148179E-04
       N       E                     dE             d eps       ncg     rms          rms(c)
DAV:   1    -0.356433313515E+02   -0.58482E-05   -0.20726E-05    72   0.448E-02    0.173E-03
DAV:   2    -0.356433318038E+02   -0.45237E-06   -0.13128E-06    48   0.114E-02    0.102E-03
DAV:   3    -0.356433321202E+02   -0.31633E-06   -0.15953E-07    48   0.371E-03    0.667E-04
DAV:   4    -0.356433327329E+02   -0.61273E-06   -0.13900E-07    88   0.357E-03    0.237E-04
DAV:   5    -0.356433328687E+02   -0.13584E-06   -0.46458E-08    48   0.176E-03    0.210E-04
DAV:   6    -0.356433331060E+02   -0.23724E-06   -0.25736E-08    48   0.930E-04
 107 F= -.35643333E+02 E0= -.35643333E+02  d E =-.514492E-05
       N       E                     dE             d eps       ncg     rms          rms(c)
DAV:   1    -0.356433349641E+02   -0.20954E-05   -0.27026E-05    48   0.513E-02    0.185E-03
DAV:   2    -0.356433351732E+02   -0.20906E-06   -0.16693E-06    48   0.130E-02    0.113E-03
DAV:   3    -0.356433352623E+02   -0.89123E-07   -0.18898E-07    48   0.415E-03    0.753E-04
DAV:   4    -0.356433354495E+02   -0.18716E-06   -0.14828E-07    76   0.386E-03    0.259E-04
DAV:   5    -0.356433354945E+02   -0.45016E-07   -0.46568E-08    48   0.187E-03    0.241E-04
DAV:   6    -0.356433355651E+02   -0.70613E-07   -0.20719E-08    48   0.938E-04
 108 F= -.35643336E+02 E0= -.35643336E+02  d E =-.245911E-05
       N       E                     dE             d eps       ncg     rms          rms(c)
DAV:   1    -0.356433370363E+02   -0.15418E-05   -0.21259E-05    48   0.453E-02    0.145E-03
DAV:   2    -0.356433371419E+02   -0.10557E-06   -0.12431E-06    48   0.113E-02    0.932E-04
DAV:   3    -0.356433371730E+02   -0.31162E-07   -0.14243E-07    48   0.361E-03    0.601E-04
DAV:   4    -0.356433372407E+02   -0.67668E-07   -0.99425E-08    76   0.291E-03    0.221E-04
DAV:   5    -0.356433372619E+02   -0.21197E-07   -0.33528E-08    48   0.142E-03    0.206E-04
DAV:   6    -0.356433373058E+02   -0.43885E-07   -0.21160E-08    48   0.819E-04
 109 F= -.35643337E+02 E0= -.35643337E+02  d E =-.174069E-05
       N       E                     dE             d eps       ncg     rms          rms(c)
DAV:   1    -0.356433392138E+02   -0.19519E-05   -0.16731E-05    48   0.394E-02    0.124E-03
DAV:   2    -0.356433392588E+02   -0.44945E-07   -0.82480E-07    48   0.919E-03    0.767E-04
DAV:   3    -0.356433392772E+02   -0.18450E-07   -0.11901E-07    48   0.308E-03    0.283E-04
DAV:   4    -0.356433392974E+02   -0.20223E-07   -0.41418E-08    48   0.145E-03    0.176E-04
DAV:   5    -0.356433393173E+02   -0.19892E-07   -0.20052E-08    48   0.696E-04    0.889E-05
DAV:   6    -0.356433393377E+02   -0.20391E-07   -0.16043E-08    52   0.426E-04
 110 F= -.35643339E+02 E0= -.35643339E+02  d E =-.203194E-05
       N       E                     dE             d eps       ncg     rms          rms(c)
DAV:   1    -0.356433415799E+02   -0.22626E-05   -0.22709E-05    48   0.466E-02    0.150E-03
DAV:   2    -0.356433416157E+02   -0.35807E-07   -0.11924E-06    48   0.107E-02    0.971E-04
DAV:   3    -0.356433416095E+02    0.61993E-08   -0.16011E-07    48   0.344E-03    0.559E-04
DAV:   4    -0.356433416134E+02   -0.39045E-08   -0.61032E-08    48   0.190E-03    0.209E-04
DAV:   5    -0.356433416217E+02   -0.83005E-08   -0.25622E-08    48   0.900E-04    0.134E-04
DAV:   6    -0.356433416276E+02   -0.58628E-08   -0.17801E-08    48   0.478E-04
 111 F= -.35643342E+02 E0= -.35643342E+02  d E =-.228987E-05
       N       E                     dE             d eps       ncg     rms          rms(c)
DAV:   1    -0.356433433959E+02   -0.17742E-05   -0.37444E-05    48   0.608E-02    0.213E-03
DAV:   2    -0.356433434548E+02   -0.58945E-07   -0.20900E-06    48   0.142E-02    0.132E-03
DAV:   3    -0.356433434342E+02    0.20682E-07   -0.26457E-07    48   0.461E-03    0.834E-04
DAV:   4    -0.356433434219E+02    0.12252E-07   -0.12063E-07    48   0.311E-03    0.245E-04
DAV:   5    -0.356433434277E+02   -0.57587E-08   -0.40311E-08    48   0.141E-03    0.182E-04
DAV:   6    -0.356433434345E+02   -0.68253E-08   -0.21995E-08    48   0.642E-04
 112 F= -.35643343E+02 E0= -.35643343E+02  d E =-.180691E-05
       N       E                     dE             d eps       ncg     rms          rms(c)
DAV:   1    -0.356433434716E+02   -0.43969E-07   -0.63342E-08    48   0.213E-03    0.537E-05
DAV:   2    -0.356433434754E+02   -0.37896E-08   -0.19247E-08    48   0.549E-04    0.403E-05
DAV:   3    -0.356433434789E+02   -0.34804E-08   -0.16706E-08    48   0.194E-04    0.287E-05
DAV:   4    -0.356433434852E+02   -0.62541E-08   -0.16296E-08    48   0.109E-04    0.827E-06
DAV:   5    -0.356433434886E+02   -0.34638E-08   -0.16133E-08    48   0.606E-05    0.645E-06
DAV:   6    -0.356433434927E+02   -0.40682E-08   -0.16029E-08    48   0.459E-05
 113 F= -.35643343E+02 E0= -.35643343E+02  d E =-.581999E-07
       N       E                     dE             d eps       ncg     rms          rms(c)
DAV:   1    -0.356433435514E+02   -0.62731E-07   -0.28775E-07    48   0.498E-03    0.119E-04
DAV:   2    -0.356433435554E+02   -0.40477E-08   -0.30115E-08    48   0.121E-03    0.802E-05
DAV:   3    -0.356433435576E+02   -0.22135E-08   -0.17673E-08    48   0.387E-04    0.505E-05
DAV:   4    -0.356433435600E+02   -0.23535E-08   -0.16287E-08    48   0.203E-04    0.134E-05
DAV:   5    -0.356433435605E+02   -0.54729E-09   -0.15928E-08    48   0.944E-05    0.121E-05
DAV:   6    -0.356433435612E+02   -0.67166E-09   -0.15798E-08    48   0.532E-05
 114 F= -.35643344E+02 E0= -.35643344E+02  d E =-.684967E-07
       N       E                     dE             d eps       ncg     rms          rms(c)
DAV:   1    -0.356433436198E+02   -0.59282E-07   -0.93336E-07    48   0.904E-03    0.214E-04
DAV:   2    -0.356433436261E+02   -0.62505E-08   -0.63817E-08    48   0.221E-03    0.143E-04
DAV:   3    -0.356433436279E+02   -0.18886E-08   -0.21849E-08    48   0.699E-04    0.868E-05
DAV:   4    -0.356433436293E+02   -0.13554E-08   -0.17306E-08    48   0.346E-04    0.215E-05
DAV:   5    -0.356433436292E+02    0.12369E-09   -0.16136E-08    48   0.162E-04    0.195E-05
DAV:   6    -0.356433436292E+02   -0.69122E-10   -0.15800E-08    48   0.903E-05
 115 F= -.35643344E+02 E0= -.35643344E+02  d E =-.680501E-07
       N       E                     dE             d eps       ncg     rms          rms(c)
DAV:   1    -0.356433436668E+02   -0.37638E-07   -0.24681E-06    48   0.147E-02    0.349E-04
DAV:   2    -0.356433436802E+02   -0.13393E-07   -0.14344E-07    48   0.358E-03    0.229E-04
DAV:   3    -0.356433436841E+02   -0.38517E-08   -0.31798E-08    48   0.112E-03    0.129E-04
DAV:   4    -0.356433436855E+02   -0.14393E-08   -0.19630E-08    48   0.535E-04    0.314E-05
DAV:   5    -0.356433436853E+02    0.18167E-09   -0.16831E-08    48   0.255E-04    0.288E-05
DAV:   6    -0.356433436853E+02    0.32742E-10   -0.16040E-08    48   0.144E-04
 116 F= -.35643344E+02 E0= -.35643344E+02  d E =-.560384E-07
       N       E                     dE             d eps       ncg     rms          rms(c)
DAV:   1    -0.356433436728E+02    0.12547E-07   -0.56856E-06    48   0.222E-02    0.531E-04
DAV:   2    -0.356433437014E+02   -0.28630E-07   -0.30952E-07    48   0.542E-03    0.346E-04
DAV:   3    -0.356433437085E+02   -0.70872E-08   -0.52449E-08    48   0.169E-03    0.179E-04
DAV:   4    -0.356433437107E+02   -0.22158E-08   -0.24593E-08    48   0.787E-04    0.440E-05
DAV:   5    -0.356433437104E+02    0.28331E-09   -0.18367E-08    48   0.380E-04    0.405E-05
DAV:   6    -0.356433437106E+02   -0.21760E-09   -0.16482E-08    48   0.216E-04
 117 F= -.35643344E+02 E0= -.35643344E+02  d E =-.253530E-07
       N       E                     dE             d eps       ncg     rms          rms(c)
DAV:   1    -0.356433436093E+02    0.10115E-06   -0.11813E-05    48   0.319E-02    0.766E-04
DAV:   2    -0.356433436661E+02   -0.56795E-07   -0.62482E-07    48   0.779E-03    0.498E-04
DAV:   3    -0.356433436797E+02   -0.13593E-07   -0.91356E-08    48   0.241E-03    0.240E-04
DAV:   4    -0.356433436829E+02   -0.32917E-08   -0.34209E-08    48   0.112E-03    0.607E-05
DAV:   5    -0.356433436828E+02    0.11914E-09   -0.21485E-08    48   0.544E-04    0.552E-05
DAV:   6    -0.356433436828E+02    0.52523E-10   -0.17518E-08    48   0.312E-04
 118 F= -.35643344E+02 E0= -.35643344E+02  d E =0.278565E-07
       N       E                     dE             d eps       ncg     rms          rms(c)
DAV:   1    -0.356433433863E+02    0.29655E-06   -0.28934E-05    48   0.500E-02    0.120E-03
DAV:   2    -0.356433435218E+02   -0.13554E-06   -0.15037E-06    48   0.122E-02    0.779E-04
DAV:   3    -0.356433435512E+02   -0.29332E-07   -0.19918E-07    48   0.376E-03    0.357E-04
DAV:   4    -0.356433435572E+02   -0.60270E-08   -0.60822E-08    48   0.173E-03    0.926E-05
DAV:   5    -0.356433435579E+02   -0.74874E-09   -0.29998E-08    48   0.848E-04    0.836E-05
DAV:   6    -0.356433435581E+02   -0.18758E-09   -0.20269E-08    48   0.487E-04
 119 F= -.35643344E+02 E0= -.35643344E+02  d E =0.124663E-06
       N       E                     dE             d eps       ncg     rms          rms(c)
DAV:   1    -0.356433428660E+02    0.69193E-06   -0.68335E-05    48   0.767E-02    0.186E-03
DAV:   2    -0.356433431806E+02   -0.31457E-06   -0.35254E-06    48   0.187E-02    0.120E-03
DAV:   3    -0.356433432450E+02   -0.64485E-07   -0.44728E-07    48   0.576E-03    0.534E-04
DAV:   4    -0.356433432571E+02   -0.12061E-07   -0.12241E-07    48   0.265E-03    0.141E-04
DAV:   5    -0.356433432597E+02   -0.25987E-08   -0.49639E-08    48   0.130E-03    0.127E-04
DAV:   6    -0.356433432605E+02   -0.79626E-09   -0.26704E-08    48   0.751E-04
 120 F= -.35643343E+02 E0= -.35643343E+02  d E =0.297614E-06
       N       E                     dE             d eps       ncg     rms          rms(c)
DAV:   1    -0.356433419037E+02    0.13560E-05   -0.14175E-04    64   0.111E-01    0.268E-03
DAV:   2    -0.356433425519E+02   -0.64821E-06   -0.72956E-06    48   0.269E-02    0.173E-03
DAV:   3    -0.356433426784E+02   -0.12643E-06   -0.91082E-07    48   0.829E-03    0.762E-04
DAV:   4    -0.356433427006E+02   -0.22256E-07   -0.23834E-07    48   0.383E-03    0.203E-04
DAV:   5    -0.356433427078E+02   -0.72014E-08   -0.86802E-08    48   0.188E-03    0.183E-04
DAV:   6    -0.356433427095E+02   -0.17342E-08   -0.38971E-08    48   0.109E-03
 121 F= -.35643343E+02 E0= -.35643343E+02  d E =0.550955E-06
       N       E                     dE             d eps       ncg     rms          rms(c)
DAV:   1    -0.356433416275E+02    0.10804E-05   -0.28378E-04    96   0.153E-01    0.413E-03
DAV:   2    -0.356433416617E+02   -0.34204E-07   -0.26407E-06    48   0.147E-02    0.253E-03
DAV:   3    -0.356433417463E+02   -0.84692E-07   -0.47965E-07    48   0.631E-03    0.490E-04
DAV:   4    -0.356433417637E+02   -0.17330E-07   -0.13661E-07    48   0.282E-03    0.253E-04
DAV:   5    -0.356433417708E+02   -0.71088E-08   -0.50409E-08    48   0.142E-03    0.887E-05
DAV:   6    -0.356433417791E+02   -0.82978E-08   -0.29322E-08    48   0.811E-04
 122 F= -.35643342E+02 E0= -.35643342E+02  d E =0.930459E-06
       N       E                     dE             d eps       ncg     rms          rms(c)
DAV:   1    -0.356433400845E+02    0.16863E-05   -0.50822E-04    96   0.204E-01    0.550E-03
DAV:   2    -0.356433401598E+02   -0.75234E-07   -0.46690E-06    48   0.196E-02    0.339E-03
DAV:   3    -0.356433403045E+02   -0.14475E-06   -0.82681E-07    48   0.838E-03    0.659E-04
DAV:   4    -0.356433403347E+02   -0.30192E-07   -0.22456E-07    48   0.372E-03    0.341E-04
DAV:   5    -0.356433403482E+02   -0.13460E-07   -0.74465E-08    48   0.186E-03    0.123E-04
DAV:   6    -0.356433403626E+02   -0.14423E-07   -0.38664E-08    48   0.107E-03
 123 F= -.35643340E+02 E0= -.35643340E+02  d E =0.141651E-05
       N       E                     dE             d eps       ncg     rms          rms(c)
DAV:   1    -0.356433380842E+02    0.22640E-05   -0.86919E-04    96   0.267E-01    0.719E-03
DAV:   2    -0.356433382369E+02   -0.15276E-06   -0.79707E-06    48   0.256E-02    0.442E-03
DAV:   3    -0.356433384765E+02   -0.23956E-06   -0.13930E-06    64   0.109E-02    0.860E-04
DAV:   4    -0.356433385256E+02   -0.49067E-07   -0.36819E-07    48   0.484E-03    0.443E-04
DAV:   5    -0.356433385469E+02   -0.21294E-07   -0.11481E-07    48   0.242E-03    0.160E-04
DAV:   6    -0.356433385695E+02   -0.22599E-07   -0.53710E-08    48   0.139E-03
 124 F= -.35643339E+02 E0= -.35643339E+02  d E =0.179312E-05
       N       E                     dE             d eps       ncg     rms          rms(c)
DAV:   1    -0.356433357528E+02    0.27940E-05   -0.14300E-03    96   0.343E-01    0.920E-03
DAV:   2    -0.356433360318E+02   -0.27896E-06   -0.13104E-05    48   0.328E-02    0.567E-03
DAV:   3    -0.356433364208E+02   -0.38902E-06   -0.22606E-06    64   0.139E-02    0.110E-03
DAV:   4    -0.356433365001E+02   -0.79311E-07   -0.58668E-07    48   0.616E-03    0.559E-04
DAV:   5    -0.356433365345E+02   -0.34362E-07   -0.17646E-07    48   0.308E-03    0.201E-04
DAV:   6    -0.356433365691E+02   -0.34576E-07   -0.75862E-08    48   0.176E-03
 125 F= -.35643337E+02 E0= -.35643337E+02  d E =0.200040E-05
       N       E                     dE             d eps       ncg     rms          rms(c)
DAV:   1    -0.356433329546E+02    0.35799E-05   -0.22722E-03    96   0.432E-01    0.116E-02
DAV:   2    -0.356433334471E+02   -0.49253E-06   -0.20812E-05    64   0.414E-02    0.714E-03
DAV:   3    -0.356433340549E+02   -0.60774E-06   -0.35462E-06    64   0.175E-02    0.138E-03
DAV:   4    -0.356433341790E+02   -0.12410E-06   -0.90937E-07    48   0.771E-03    0.689E-04
DAV:   5    -0.356433342350E+02   -0.55998E-07   -0.26794E-07    48   0.386E-03    0.245E-04
DAV:   6    -0.356433342872E+02   -0.52285E-07   -0.10837E-07    48   0.219E-03
 126 F= -.35643334E+02 E0= -.35643334E+02  d E =0.228182E-05
       N       E                     dE             d eps       ncg     rms          rms(c)
DAV:   1    -0.356433302497E+02    0.39852E-05   -0.34920E-03    96   0.536E-01    0.143E-02
DAV:   2    -0.356433310582E+02   -0.80852E-06   -0.31988E-05    64   0.513E-02    0.885E-03
DAV:   3    -0.356433319935E+02   -0.93525E-06   -0.53902E-06    64   0.216E-02    0.170E-03
DAV:   4    -0.356433321844E+02   -0.19088E-06   -0.13746E-06    48   0.951E-03    0.834E-04
DAV:   5    -0.356433322727E+02   -0.88298E-07   -0.39992E-07    48   0.475E-03    0.294E-04
DAV:   6    -0.356433323492E+02   -0.76478E-07   -0.15538E-07    48   0.269E-03
 127 F= -.35643332E+02 E0= -.35643332E+02  d E =0.193808E-05
       N       E                     dE             d eps       ncg     rms          rms(c)
DAV:   1    -0.356433280989E+02    0.41738E-05   -0.51852E-03    96   0.654E-01    0.175E-02
DAV:   2    -0.356433293780E+02   -0.12791E-05   -0.47497E-05    64   0.626E-02    0.108E-02
DAV:   3    -0.356433307358E+02   -0.13578E-05   -0.79407E-06    64   0.263E-02    0.207E-03
DAV:   4    -0.356433310189E+02   -0.28307E-06   -0.20244E-06    48   0.116E-02    0.991E-04
DAV:   5    -0.356433311546E+02   -0.13567E-06   -0.58413E-07    48   0.578E-03    0.344E-04
DAV:   6    -0.356433312634E+02   -0.10883E-06   -0.22098E-07    48   0.325E-03
 128 F= -.35643331E+02 E0= -.35643331E+02  d E =0.108574E-05
       N       E                     dE             d eps       ncg     rms          rms(c)
DAV:   1    -0.356433278291E+02    0.33255E-05   -0.74170E-03    96   0.782E-01    0.209E-02
DAV:   2    -0.356433297249E+02   -0.18958E-05   -0.67862E-05    64   0.747E-02    0.129E-02
DAV:   3    -0.356433315906E+02   -0.18657E-05   -0.11324E-05    64   0.314E-02    0.247E-03
DAV:   4    -0.356433319987E+02   -0.40815E-06   -0.28910E-06    48   0.138E-02    0.116E-03
DAV:   5    -0.356433321973E+02   -0.19853E-06   -0.82964E-07    48   0.690E-03    0.395E-04
DAV:   6    -0.356433323460E+02   -0.14877E-06   -0.30785E-07    48   0.387E-03
 129 F= -.35643332E+02 E0= -.35643332E+02  d E =-.108261E-05
       N       E                     dE             d eps       ncg     rms          rms(c)
DAV:   1    -0.356433291144E+02    0.30828E-05   -0.10163E-02    96   0.916E-01    0.245E-02
DAV:   2    -0.356433316250E+02   -0.25106E-05   -0.92709E-05    64   0.872E-02    0.151E-02
DAV:   3    -0.356433341461E+02   -0.25210E-05   -0.15630E-05    64   0.369E-02    0.288E-03
DAV:   4    -0.356433347193E+02   -0.57317E-06   -0.39934E-06    48   0.162E-02    0.138E-03
DAV:   5    -0.356433349956E+02   -0.27637E-06   -0.11407E-06    48   0.809E-03    0.468E-04
DAV:   6    -0.356433351928E+02   -0.19714E-06   -0.41767E-07    48   0.455E-03
 130 F= -.35643335E+02 E0= -.35643335E+02  d E =-.284673E-05
       N       E                     dE             d eps       ncg     rms          rms(c)
DAV:   1    -0.356433329522E+02    0.20434E-05   -0.13207E-02    96   0.104E+00    0.281E-02
DAV:   2    -0.356433359402E+02   -0.29880E-05   -0.12106E-04    64   0.994E-02    0.173E-02
DAV:   3    -0.356433392826E+02   -0.33424E-05   -0.20937E-05    64   0.424E-02    0.336E-03
DAV:   4    -0.356433400736E+02   -0.79097E-06   -0.53153E-06    48   0.187E-02    0.174E-03
DAV:   5    -0.356433404517E+02   -0.37810E-06   -0.15047E-06    48   0.931E-03    0.624E-04
DAV:   6    -0.356433407373E+02   -0.28561E-06   -0.55371E-07    48   0.533E-03
 131 F= -.35643341E+02 E0= -.35643341E+02  d E =-.554452E-05
       N       E                     dE             d eps       ncg     rms          rms(c)
DAV:   1    -0.356433343155E+02    0.61362E-05   -0.15585E-02    96   0.113E+00    0.307E-02
DAV:   2    -0.356433374641E+02   -0.31486E-05   -0.14705E-04    64   0.109E-01    0.190E-02
DAV:   3    -0.356433417272E+02   -0.42630E-05   -0.26448E-05    64   0.467E-02    0.401E-03
DAV:   4    -0.356433427416E+02   -0.10144E-05   -0.64663E-06    48   0.207E-02    0.225E-03
DAV:   5    -0.356433432268E+02   -0.48524E-06   -0.18018E-06    48   0.102E-02    0.849E-04
DAV:   6    -0.356433436089E+02   -0.38215E-06   -0.67037E-07    48   0.592E-03
 132 F= -.35643344E+02 E0= -.35643344E+02  d E =-.287167E-05
       N       E                     dE             d eps       ncg     rms          rms(c)
DAV:   1    -0.356433439378E+02   -0.71105E-06   -0.92596E-07    48   0.864E-03    0.343E-04
DAV:   2    -0.356433441189E+02   -0.18103E-06   -0.12907E-07    48   0.291E-03    0.230E-04
DAV:   3    -0.356433443642E+02   -0.24538E-06   -0.50904E-08    48   0.135E-03    0.125E-04
DAV:   4    -0.356433446426E+02   -0.27833E-06   -0.32156E-08    48   0.789E-04    0.585E-05
DAV:   5    -0.356433448710E+02   -0.22846E-06   -0.25131E-08    48   0.510E-04    0.376E-05
DAV:   6    -0.356433452242E+02   -0.35313E-06   -0.27473E-08    72   0.474E-04
 133 F= -.35643345E+02 E0= -.35643345E+02  d E =-.161522E-05
       N       E                     dE             d eps       ncg     rms          rms(c)
DAV:   1    -0.356433455269E+02   -0.65585E-06   -0.27374E-06    48   0.156E-02    0.408E-04
DAV:   2    -0.356433455946E+02   -0.67744E-07   -0.15517E-07    48   0.378E-03    0.261E-04
DAV:   3    -0.356433456589E+02   -0.64324E-07   -0.32672E-08    48   0.118E-03    0.159E-04
DAV:   4    -0.356433457387E+02   -0.79730E-07   -0.20851E-08    60   0.606E-04    0.549E-05
DAV:   5    -0.356433457824E+02   -0.43685E-07   -0.17579E-08    48   0.300E-04    0.363E-05
DAV:   6    -0.356433458311E+02   -0.48777E-07   -0.16719E-08    48   0.172E-04
 134 F= -.35643346E+02 E0= -.35643346E+02  d E =-.606974E-06
       N       E                     dE             d eps       ncg     rms          rms(c)
DAV:   1    -0.356433461321E+02   -0.34978E-06   -0.57424E-06    56   0.226E-02    0.590E-04
DAV:   2    -0.356433461763E+02   -0.44132E-07   -0.30692E-07    48   0.547E-03    0.374E-04
DAV:   3    -0.356433462007E+02   -0.24457E-07   -0.51488E-08    48   0.169E-03    0.215E-04
DAV:   4    -0.356433462220E+02   -0.21269E-07   -0.24906E-08    48   0.835E-04    0.726E-05
DAV:   5    -0.356433462312E+02   -0.92386E-08   -0.18073E-08    48   0.405E-04    0.486E-05
DAV:   6    -0.356433462401E+02   -0.88424E-08   -0.16049E-08    48   0.224E-04
 135 F= -.35643346E+02 E0= -.35643346E+02  d E =-.408941E-06
