 vasp.5.4.1 24Jun15 (build Jan 13 2020 12:58:22) complex                        
  
 executed on           IFC91_ompi date 2020.02.03  09:53:44
 running on   15 total cores
 each image running on    1 cores
 distrk:  each k-point on    1 cores,    1 groups
 distr:  one band on NCORES_PER_BAND=   1 cores,    1 groups


--------------------------------------------------------------------------------------------------------


 INCAR:
 POTCAR:    PAW_PBE H 15Jun2001                   
 POTCAR:    PAW_PBE C 08Apr2002                   
 POTCAR:    PAW_PBE N 08Apr2002                   
 POTCAR:    PAW_PBE H 15Jun2001                   
   VRHFIN =H: ultrasoft test                                                    
   LEXCH  = PE                                                                  
   EATOM  =    12.4884 eV,    0.9179 Ry                                         
                                                                                
   TITEL  = PAW_PBE H 15Jun2001                                                 
   LULTRA =        F    use ultrasoft PP ?                                      
   IUNSCR =        0    unscreen: 0-lin 1-nonlin 2-no                           
   RPACOR =    0.000    partial core radius                                     
   POMASS =    1.000; ZVAL   =    1.000    mass and valenz                      
   RCORE  =    1.100    outmost cutoff radius                                   
   RWIGS  =    0.700; RWIGS  =    0.370    wigner-seitz radius (au A)           
   ENMAX  =  250.000; ENMIN  =  200.000 eV                                      
   RCLOC  =    0.701    cutoff for local pot                                    
   LCOR   =        T    correct aug charges                                     
   LPAW   =        T    paw PP                                                  
   EAUG   =  400.000                                                            
   RMAX   =    1.123    core radius for proj-oper                               
   RAUG   =    1.200    factor for augmentation sphere                          
   RDEP   =    1.112    radius for radial grids                                 
   RDEPT  =    0.926    core radius for aug-charge                              
                                                                                
   Atomic configuration                                                         
    2 entries                                                                   
     n  l   j            E        occ.                                          
     1  0  0.50        -6.4927   1.0000                                         
     2  1  0.50        -3.4015   0.0000                                         
   Description                                                                  
     l       E           TYP  RCUT    TYP  RCUT                                 
     0     -6.4927494     23  1.100                                             
     0      6.8029130     23  1.100                                             
     1     -4.0817478     23  1.100                                             
  local pseudopotential read in
  atomic valenz-charges read in
  non local Contribution for L=           0  read in
    real space projection operators read in
  non local Contribution for L=           0  read in
    real space projection operators read in
  non local Contribution for L=           1  read in
    real space projection operators read in
    PAW grid and wavefunctions read in
 
   number of l-projection  operators is LMAX  =           3
   number of lm-projection operators is LMMAX =           5
 
 POTCAR:    PAW_PBE C 08Apr2002                   
   VRHFIN =C: s2p2                                                              
   LEXCH  = PE                                                                  
   EATOM  =   147.1560 eV,   10.8157 Ry                                         
                                                                                
   TITEL  = PAW_PBE C 08Apr2002                                                 
   LULTRA =        F    use ultrasoft PP ?                                      
   IUNSCR =        1    unscreen: 0-lin 1-nonlin 2-no                           
   RPACOR =    1.200    partial core radius                                     
   POMASS =   12.011; ZVAL   =    4.000    mass and valenz                      
   RCORE  =    1.500    outmost cutoff radius                                   
   RWIGS  =    1.630; RWIGS  =    0.863    wigner-seitz radius (au A)           
   ENMAX  =  400.000; ENMIN  =  300.000 eV                                      
   ICORE  =        2    local potential                                         
   LCOR   =        T    correct aug charges                                     
   LPAW   =        T    paw PP                                                  
   EAUG   =  644.873                                                            
   DEXC   =    0.000                                                            
   RMAX   =    1.529    core radius for proj-oper                               
   RAUG   =    1.300    factor for augmentation sphere                          
   RDEP   =    1.501    radius for radial grids                                 
   RDEPT  =    1.300    core radius for aug-charge                              
                                                                                
   Atomic configuration                                                         
    4 entries                                                                   
     n  l   j            E        occ.                                          
     1  0  0.50      -273.3789   2.0000                                         
     2  0  0.50       -13.7508   2.0000                                         
     2  1  0.50        -5.2854   2.0000                                         
     3  2  1.50        -5.4423   0.0000                                         
   Description                                                                  
     l       E           TYP  RCUT    TYP  RCUT                                 
     0    -13.7508458     23  1.200                                             
     0     -8.2022199     23  1.200                                             
     1     -5.2854383     23  1.500                                             
     1     34.0145650     23  1.500                                             
     2     -5.4423304      7  1.500                                             
  local pseudopotential read in
  partial core-charges read in
  partial kinetic energy density read in
  atomic valenz-charges read in
  non local Contribution for L=           0  read in
    real space projection operators read in
  non local Contribution for L=           0  read in
    real space projection operators read in
  non local Contribution for L=           1  read in
    real space projection operators read in
  non local Contribution for L=           1  read in
    real space projection operators read in
    PAW grid and wavefunctions read in
 
   number of l-projection  operators is LMAX  =           4
   number of lm-projection operators is LMMAX =           8
 
 POTCAR:    PAW_PBE N 08Apr2002                   
   VRHFIN =N: s2p3                                                              
   LEXCH  = PE                                                                  
   EATOM  =   264.5486 eV,   19.4438 Ry                                         
                                                                                
   TITEL  = PAW_PBE N 08Apr2002                                                 
   LULTRA =        F    use ultrasoft PP ?                                      
   IUNSCR =        1    unscreen: 0-lin 1-nonlin 2-no                           
   RPACOR =    1.200    partial core radius                                     
   POMASS =   14.001; ZVAL   =    5.000    mass and valenz                      
   RCORE  =    1.500    outmost cutoff radius                                   
   RWIGS  =    1.400; RWIGS  =    0.741    wigner-seitz radius (au A)           
   ENMAX  =  400.000; ENMIN  =  300.000 eV                                      
   ICORE  =        2    local potential                                         
   LCOR   =        T    correct aug charges                                     
   LPAW   =        T    paw PP                                                  
   EAUG   =  627.112                                                            
   DEXC   =    0.000                                                            
   RMAX   =    1.529    core radius for proj-oper                               
   RAUG   =    1.300    factor for augmentation sphere                          
   RDEP   =    1.514    radius for radial grids                                 
   RDEPT  =    1.338    core radius for aug-charge                              
                                                                                
   Atomic configuration                                                         
    4 entries                                                                   
     n  l   j            E        occ.                                          
     1  0  0.50      -384.7179   2.0000                                         
     2  0  0.50       -18.5828   2.0000                                         
     2  1  0.50        -7.0898   3.0000                                         
     3  2  1.50        -6.8029   0.0000                                         
   Description                                                                  
     l       E           TYP  RCUT    TYP  RCUT                                 
     0    -18.5828119     23  1.200                                             
     0    -13.5018863     23  1.200                                             
     1     -7.0897853     23  1.500                                             
     1      9.5240782     23  1.500                                             
     2     -6.8029130      7  1.500                                             
  local pseudopotential read in
  partial core-charges read in
  partial kinetic energy density read in
  atomic valenz-charges read in
  non local Contribution for L=           0  read in
    real space projection operators read in
  non local Contribution for L=           0  read in
    real space projection operators read in
  non local Contribution for L=           1  read in
    real space projection operators read in
  non local Contribution for L=           1  read in
    real space projection operators read in
    PAW grid and wavefunctions read in
 
   number of l-projection  operators is LMAX  =           4
   number of lm-projection operators is LMMAX =           8
 

 ----------------------------------------------------------------------------- 
|                                                                             |
|  ADVICE TO THIS USER RUNNING 'VASP/VAMP'   (HEAR YOUR MASTER'S VOICE ...):  |
|                                                                             |
|      You have a (more or less) 'small supercell' and for smaller cells      |
|      it is recommended  to use the reciprocal-space projection scheme!      |
|      The real space optimization is not  efficient for small cells and it   |
|      is also less accurate ...                                              |
|      Therefore set LREAL=.FALSE. in the  INCAR file                         |
|                                                                             |
 ----------------------------------------------------------------------------- 

 Optimization of the real space projectors (new method)

 maximal supplied QI-value         = 34.20
 optimisation between [QCUT,QGAM] = [  9.92, 20.18] = [ 27.55,114.04] Ry 
 Optimized for a Real-space Cutoff    1.26 Angstroem

   l    n(q)    QCUT    max X(q) W(low)/X(q) W(high)/X(q)  e(spline) 
   0      8     9.919    19.460    0.50E-03    0.23E-03    0.29E-06
   0      8     9.919    12.209    0.48E-03    0.23E-03    0.28E-06
   1      7     9.919     4.655    0.17E-03    0.75E-03    0.30E-06
 Optimization of the real space projectors (new method)

 maximal supplied QI-value         = 25.13
 optimisation between [QCUT,QGAM] = [ 10.05, 20.36] = [ 28.30,116.06] Ry 
 Optimized for a Real-space Cutoff    1.30 Angstroem

   l    n(q)    QCUT    max X(q) W(low)/X(q) W(high)/X(q)  e(spline) 
   0      8    10.053   115.676    0.49E-03    0.72E-03    0.18E-06
   0      8    10.053    87.132    0.49E-03    0.71E-03    0.18E-06
   1      7    10.053     4.429    0.32E-03    0.31E-03    0.18E-06
   1      7    10.053     2.733    0.23E-03    0.19E-03    0.20E-06
 Optimization of the real space projectors (new method)

 maximal supplied QI-value         = 25.13
 optimisation between [QCUT,QGAM] = [ 10.05, 20.36] = [ 28.30,116.06] Ry 
 Optimized for a Real-space Cutoff    1.65 Angstroem

   l    n(q)    QCUT    max X(q) W(low)/X(q) W(high)/X(q)  e(spline) 
   0     10    10.053    79.467    0.76E-04    0.72E-04    0.56E-06
   0     10    10.053    66.151    0.76E-04    0.72E-04    0.55E-06
   1     10    10.053     8.350    0.25E-03    0.92E-03    0.41E-05
   1     10    10.053     5.531    0.27E-03    0.10E-02    0.45E-05
  PAW_PBE H 15Jun2001                   :
 energy of atom  1       EATOM=  -12.4884
 kinetic energy error for atom=    0.0098 (will be added to EATOM!!)
  PAW_PBE C 08Apr2002                   :
 energy of atom  2       EATOM= -147.1560
 kinetic energy error for atom=    0.0288 (will be added to EATOM!!)
  PAW_PBE N 08Apr2002                   :
 energy of atom  3       EATOM= -264.5486
 kinetic energy error for atom=    0.0736 (will be added to EATOM!!)
 
 
 POSCAR: H3 C2 N1                                
  positions in direct lattice
  velocities in cartesian coordinates
 exchange correlation table for  LEXCH =        8
   RHO(1)=    0.500       N(1)  =     2000
   RHO(2)=  100.500       N(2)  =     4000

 VTST: version 3.2, (02/03/18)

 CHAIN: initializing optimizer
 
 OPT: Using FIRE optimizer
 OPT: FIRE, Init
 OPT: FIRE, MAXMOVE       0.20000
 OPT: FIRE, TIMESTEP      0.10000
 OPT: FIRE, FTIMEMAX      1.00000
 OPT: FIRE, FTIMEINC      1.10000
 OPT: FIRE, FTIMEDEC      0.50000
 OPT: FIRE, FALPHADEC     0.99000
 OPT: FIRE, FALPHA        0.10000
 OPT: FIRE, FNMIN         5
 
 CHAIN: Read ICHAIN            0
 CHAIN: Running the NEB
 NEB:          SPRING     -5.000000
 NEB:          LCLIMB      T
 NEB:     LTANGENTOLD      F
 NEB:           LDNEB      F
 NEB:        LDNEBORG      F
 NEB:        LNEBCELL      F
 NEB:          EFIRST      0.000000
 NEB:           ELAST      0.000000
 
 POSCAR: H3 C2 N1                                
  positions in direct lattice
  No initial velocities read in
 
 POSCAR: H3 C2 N1                                
  positions in direct lattice
  No initial velocities read in
 


--------------------------------------------------------------------------------------------------------


 ion  position               nearest neighbor table
   1  0.467  0.470  0.499-   4 1.10
   2  0.475  0.521  0.470-   4 1.10
   3  0.473  0.520  0.530-   4 1.10
   4  0.484  0.502  0.500-   3 1.10   1 1.10   2 1.10   6 1.42
   5  0.570  0.491  0.501-   6 1.18
   6  0.531  0.496  0.501-   5 1.18   4 1.42
 
  LATTYP: Found a simple cubic cell.
 ALAT       =    30.0000000000
  
  Lattice vectors:
  
 A1 = (  30.0000000000,   0.0000000000,   0.0000000000)
 A2 = (   0.0000000000,  30.0000000000,   0.0000000000)
 A3 = (   0.0000000000,   0.0000000000,  30.0000000000)


Analysis of symmetry for initial positions (statically):
=====================================================================
 Subroutine PRICEL returns:
 Original cell was already a primitive cell.
 

 Routine SETGRP: Setting up the symmetry group for a 
 simple cubic supercell.


 Subroutine GETGRP returns: Found  1 space group operations
 (whereof  1 operations were pure point group operations)
 out of a pool of 48 trial point group operations.


The static configuration has the point symmetry C_1 .


Analysis of symmetry for dynamics (positions and initial velocities):
=====================================================================
 Subroutine PRICEL returns:
 Original cell was already a primitive cell.
 

 Routine SETGRP: Setting up the symmetry group for a 
 simple cubic supercell.


 Subroutine GETGRP returns: Found  1 space group operations
 (whereof  1 operations were pure point group operations)
 out of a pool of 48 trial point group operations.


The dynamic configuration has the point symmetry C_1 .
 
 
 KPOINTS: Mo2C                                    

Automatic generation of k-mesh.
Space group operators:
 irot       det(A)        alpha          n_x          n_y          n_z        tau_x        tau_y        tau_z
    1     1.000000     0.000000     1.000000     0.000000     0.000000     0.000000     0.000000     0.000000
 
 Subroutine IBZKPT returns following result:
 ===========================================
 
 Found      4 irreducible k-points:
 
 Following reciprocal coordinates:
            Coordinates               Weight
  0.250000  0.250000  0.250000      2.000000
 -0.250000  0.250000  0.250000      2.000000
  0.250000 -0.250000  0.250000      2.000000
 -0.250000 -0.250000  0.250000      2.000000
 
 Following cartesian coordinates:
            Coordinates               Weight
  0.008333  0.008333  0.008333      2.000000
 -0.008333  0.008333  0.008333      2.000000
  0.008333 -0.008333  0.008333      2.000000
 -0.008333 -0.008333  0.008333      2.000000
 


--------------------------------------------------------------------------------------------------------




 Dimension of arrays:
   k-points           NKPTS =      4   k-points in BZ     NKDIM =      4   number of bands    NBANDS=     12
   number of dos      NEDOS =    301   number of ions     NIONS =      6
   non local maximal  LDIM  =      4   non local SUM 2l+1 LMDIM =      8
   total plane-waves  NPLWV = ******
   max r-space proj   IRMAX =   2395   max aug-charges    IRDMAX=   1738
   dimension x,y,z NGX =   150 NGY =  150 NGZ =  150
   dimension x,y,z NGXF=   300 NGYF=  300 NGZF=  300
   support grid    NGXF=   300 NGYF=  300 NGZF=  300
   ions per type =               3   2   1
 NGX,Y,Z   is equivalent  to a cutoff of   8.31,  8.31,  8.31 a.u.
 NGXF,Y,Z  is equivalent  to a cutoff of  16.62, 16.62, 16.62 a.u.


 I would recommend the setting:
   dimension x,y,z NGX =   147 NGY =  147 NGZ =  147
 SYSTEM =  unknown system                          
 POSCAR =  H3 C2 N1                                

 Startparameter for this run:
   NWRITE =      2    write-flag & timer
   PREC   = normal    normal or accurate (medium, high low for compatibility)
   ISTART =      0    job   : 0-new  1-cont  2-samecut
   ICHARG =      2    charge: 1-file 2-atom 10-const
   ISPIN  =      1    spin polarized calculation?
   LNONCOLLINEAR =      F non collinear calculations
   LSORBIT =      F    spin-orbit coupling
   INIWAV =      1    electr: 0-lowe 1-rand  2-diag
   LASPH  =      F    aspherical Exc in radial PAW
   METAGGA=      F    non-selfconsistent MetaGGA calc.

 Electronic Relaxation 1
   ENCUT  =  400.0 eV  29.40 Ry    5.42 a.u.  48.92 48.92 48.92*2*pi/ulx,y,z
   ENINI  =  400.0     initial cutoff
   ENAUG  =  644.9 eV  augmentation charge cutoff
   NELM   =    500;   NELMIN=  6; NELMDL= -5     # of ELM steps 
   EDIFF  = 0.1E-03   stopping-criterion for ELM
   LREAL  =      T    real-space projection
   NLSPLINE    = F    spline interpolate recip. space projectors
   LCOMPAT=      F    compatible to vasp.4.4
   GGA_COMPAT  = T    GGA compatible to vasp.4.4-vasp.4.6
   LMAXPAW     = -100 max onsite density
   LMAXMIX     =    2 max onsite mixed and CHGCAR
   VOSKOWN=      0    Vosko Wilk Nusair interpolation
   ROPT   =   -0.00050  -0.00050  -0.00050
 Ionic relaxation
   EDIFFG = -.1E+00   stopping-criterion for IOM
   NSW    =    300    number of steps for IOM
   NBLOCK =      1;   KBLOCK =    300    inner block; outer block 
   IBRION =      3    ionic relax: 0-MD 1-quasi-New 2-CG
   NFREE  =      0    steps in history (QN), initial steepest desc. (CG)
   ISIF   =      2    stress and relaxation
   IWAVPR =     11    prediction:  0-non 1-charg 2-wave 3-comb
   ISYM   =      2    0-nonsym 1-usesym 2-fastsym
   LCORR  =      T    Harris-Foulkes like correction to forces

   POTIM  = 0.0000    time-step for ionic-motion
   TEIN   =    0.0    initial temperature
   TEBEG  =    0.0;   TEEND  =   0.0 temperature during run
   SMASS  =   2.00    Nose mass-parameter (am)
   estimated Nose-frequenzy (Omega)   =  0.12E+10 period in steps =  0.00 mass=   0.137E-25a.u.
   SCALEE = 1.0000    scale energy and forces
   NPACO  =    256;   APACO  = 16.0  distance and # of slots for P.C.
   PSTRESS=    0.0 pullay stress

  Mass of Ions in am
   POMASS =   1.00 12.01 14.00
  Ionic Valenz
   ZVAL   =   1.00  4.00  5.00
  Atomic Wigner-Seitz radii
   RWIGS  =  -1.00 -1.00 -1.00
  virtual crystal weights 
   VCA    =   1.00  1.00  1.00
   NELECT =      16.0000    total number of electrons
   NUPDOWN=      -1.0000    fix difference up-down

 DOS related values:
   EMIN   =  10.00;   EMAX   =-10.00  energy-range for DOS
   EFERMI =   0.00
   ISMEAR =     0;   SIGMA  =   0.20  broadening in eV -4-tet -1-fermi 0-gaus

 Electronic relaxation 2 (details)
   IALGO  =     38    algorithm
   LDIAG  =      T    sub-space diagonalisation (order eigenvalues)
   LSUBROT=      F    optimize rotation matrix (better conditioning)
   TURBO    =      0    0=normal 1=particle mesh
   IRESTART =      0    0=no restart 2=restart with 2 vectors
   NREBOOT  =      0    no. of reboots
   NMIN     =      0    reboot dimension
   EREF     =   0.00    reference energy to select bands
   IMIX   =      4    mixing-type and parameters
     AMIX     =   0.40;   BMIX     =  1.00
     AMIX_MAG =   1.60;   BMIX_MAG =  1.00
     AMIN     =   0.10
     WC   =   100.;   INIMIX=   1;  MIXPRE=   1;  MAXMIX= -45

 Intra band minimization:
   WEIMIN = 0.0010     energy-eigenvalue tresh-hold
   EBREAK =  0.21E-05  absolut break condition
   DEPER  =   0.30     relativ break condition  

   TIME   =   0.40     timestep for ELM

  volume/ion in A,a.u.               =    4500.00     30367.50
  Fermi-wavevector in a.u.,A,eV,Ry     =   0.137508  0.259852  0.257264  0.018908
  Thomas-Fermi vector in A             =   0.790710
 
 Write flags
   LWAVE  =      F    write WAVECAR
   LCHARG =      F    write CHGCAR
   LVTOT  =      F    write LOCPOT, total local potential
   LVHAR  =      F    write LOCPOT, Hartree potential only
   LELF   =      F    write electronic localiz. function (ELF)
   LORBIT =      0    0 simple, 1 ext, 2 COOP (PROOUT)


 Dipole corrections
   LMONO  =      F    monopole corrections only (constant potential shift)
   LDIPOL =      F    correct potential (dipole corrections)
   IDIPOL =      0    1-x, 2-y, 3-z, 4-all directions 
   EPSILON=  1.0000000 bulk dielectric constant

 Exchange correlation treatment:
   GGA     =    PE    GGA type
   LEXCH   =     8    internal setting for exchange type
   VOSKOWN=      0    Vosko Wilk Nusair interpolation
   LHFCALC =     F    Hartree Fock is set to
   LHFONE  =     F    Hartree Fock one center treatment
   AEXX    =    0.0000 exact exchange contribution

 Linear response parameters
   LEPSILON=     F    determine dielectric tensor
   LRPA    =     F    only Hartree local field effects (RPA)
   LNABLA  =     F    use nabla operator in PAW spheres
   LVEL    =     F    velocity operator in full k-point grid
   LINTERFAST=   F  fast interpolation
   KINTER  =     0    interpolate to denser k-point grid
   CSHIFT  =0.1000    complex shift for real part using Kramers Kronig
   OMEGAMAX=  -1.0    maximum frequency
   DEG_THRESHOLD= 0.2000000E-02 threshold for treating states as degnerate
   RTIME   =    0.100 relaxation time in fs

 Orbital magnetization related:
   ORBITALMAG=     F  switch on orbital magnetization
   LCHIMAG   =     F  perturbation theory with respect to B field
   DQ        =  0.001000  dq finite difference perturbation B field



--------------------------------------------------------------------------------------------------------


 quickmin algorithm: (dynamic with friction)
 charge density and potential will be updated during run
 non-spin polarized calculation
 Variant of blocked Davidson
 Davidson routine will perform the subspace rotation
 perform sub-space diagonalisation
    after iterative eigenvector-optimisation
 modified Broyden-mixing scheme, WC =      100.0
 initial mixing is a Kerker type mixing with AMIX =  0.4000 and BMIX =      1.0000
 Hartree-type preconditioning will be used
 using additional bands            4
 real space projection scheme for non local part
 use partial core corrections
 calculate Harris-corrections to forces 
   (improved forces if not selfconsistent)
 use gradient corrections 
 use of overlap-Matrix (Vanderbilt PP)
 Gauss-broadening in eV      SIGMA  =   0.20


--------------------------------------------------------------------------------------------------------


  energy-cutoff  :      400.00
  volume of cell :    27000.00
      direct lattice vectors                 reciprocal lattice vectors
    30.000000000  0.000000000  0.000000000     0.033333333  0.000000000  0.000000000
     0.000000000 30.000000000  0.000000000     0.000000000  0.033333333  0.000000000
     0.000000000  0.000000000 30.000000000     0.000000000  0.000000000  0.033333333

  length of vectors
    30.000000000 30.000000000 30.000000000     0.033333333  0.033333333  0.033333333


 
 k-points in units of 2pi/SCALE and weight: Mo2C                                    
   0.00833333  0.00833333  0.00833333       0.250
  -0.00833333  0.00833333  0.00833333       0.250
   0.00833333 -0.00833333  0.00833333       0.250
  -0.00833333 -0.00833333  0.00833333       0.250
 
 k-points in reciprocal lattice and weights: Mo2C                                    
   0.25000000  0.25000000  0.25000000       0.250
  -0.25000000  0.25000000  0.25000000       0.250
   0.25000000 -0.25000000  0.25000000       0.250
  -0.25000000 -0.25000000  0.25000000       0.250
 
 position of ions in fractional coordinates (direct lattice) 
   0.46706170  0.46970780  0.49894108
   0.47473107  0.52141950  0.47013398
   0.47326875  0.52042309  0.52969363
   0.48416439  0.50211935  0.49986846
   0.56988168  0.49062077  0.50055839
   0.53090476  0.49573842  0.50080156
 
 position of ions in cartesian coordinates  (Angst):
  14.01185108 14.09123408 14.96823229
  14.24193205 15.64258509 14.10401935
  14.19806256 15.61269272 15.89080900
  14.52493167 15.06358045 14.99605374
  17.09645048 14.71862306 15.01675184
  15.92714280 14.87215273 15.02404680
 


--------------------------------------------------------------------------------------------------------


 k-point  1 :   0.2500 0.2500 0.2500  plane waves:  490454
 k-point  2 :  -0.2500 0.2500 0.2500  plane waves:  490454
 k-point  3 :   0.2500-0.2500 0.2500  plane waves:  490454
 k-point  4 :  -0.2500-0.2500 0.2500  plane waves:  490454

 maximum and minimum number of plane-waves per node :    490454   490454

 maximum number of plane-waves:    490454
 maximum index in each direction: 
   IXMAX=   49   IYMAX=   49   IZMAX=   48
   IXMIN=  -49   IYMIN=  -49   IZMIN=  -49

 WARNING: aliasing errors must be expected set NGX to 198 to avoid them
 WARNING: aliasing errors must be expected set NGY to 198 to avoid them
 WARNING: aliasing errors must be expected set NGZ to 196 to avoid them
 aliasing errors are usually negligible using standard VASP settings
 and one can safely disregard these warnings

 serial   3D FFT for wavefunctions
 parallel 3D FFT for charge:
    minimum data exchange during FFTs selected (reduces bandwidth)


 total amount of memory used by VASP on root node  3203887. kBytes
========================================================================

   base      :      30000. kBytes
   nonlr-proj:        691. kBytes
   fftplans  :     924480. kBytes
   grid      :    1872000. kBytes
   one-center:         18. kBytes
   wavefun   :     376698. kBytes
 
     INWAV:  cpu time    0.0010: real time    0.0004
 Broyden mixing: mesh for mixing (old mesh)
   NGX = 97   NGY = 97   NGZ = 97
  (NGX  =300   NGY  =300   NGZ  =300)
  gives a total of 912673 points

 initial charge density was supplied:
 charge density of overlapping atoms calculated
 number of electron      16.0000000 magnetization 
 keeping initial charge density in first step


--------------------------------------------------------------------------------------------------------


 Maximum index for non-local projection operator         2269
 Maximum index for augmentation-charges         1489 (set IRDMAX)


--------------------------------------------------------------------------------------------------------


 First call to EWALD:  gamma=   0.059
 Maximum number of real-space cells 3x 3x 3
 Maximum number of reciprocal cells 3x 3x 3

 FEWALD executed in parallel
    FEWALD:  cpu time    0.0020: real time    0.0020


----------------------------------------- Iteration    1(   1)  ---------------------------------------


    POTLOK:  cpu time   20.2339: real time   20.2175
    SETDIJ:  cpu time    0.0080: real time    0.0080
     EDDAV:  cpu time   88.8415: real time   88.7674
       DOS:  cpu time    0.0000: real time    0.0003
    --------------------------------------------
      LOOP:  cpu time  109.0854: real time  108.9975

 eigenvalue-minimisations  :   160
 total energy-change (2. order) : 0.1145311E+03  (-0.2131377E+03)
 number of electron      16.0000000 magnetization 
 augmentation part       16.0000000 magnetization 

 Free energy of the ion-electron system (eV)
  ---------------------------------------------------
  alpha Z        PSCENC =         0.04144063
  Ewald energy   TEWEN  =       703.07954446
  -Hartree energ DENC   =     -1117.32203397
  -exchange      EXHF   =         0.00000000
  -V(xc)+E(xc)   XCENC  =        51.42280034
  PAW double counting   =       428.37890668     -430.73533574
  entropy T*S    EENTRO =        -0.18681838
  eigenvalues    EBANDS =      -116.31273113
  atomic energy  EATOM  =       596.16534815
  Solvation  Ediel_sol  =         0.00000000
  ---------------------------------------------------
  free energy    TOTEN  =       114.53112104 eV

  energy without entropy =      114.71793943  energy(sigma->0) =      114.62453023


--------------------------------------------------------------------------------------------------------




----------------------------------------- Iteration    1(   2)  ---------------------------------------


     EDDAV:  cpu time  106.4958: real time  106.4091
       DOS:  cpu time    0.0000: real time    0.0002
    --------------------------------------------
      LOOP:  cpu time  106.4978: real time  106.4119

 eigenvalue-minimisations  :   192
 total energy-change (2. order) :-0.1162383E+03  (-0.1137066E+03)
 number of electron      16.0000000 magnetization 
 augmentation part       16.0000000 magnetization 

 Free energy of the ion-electron system (eV)
  ---------------------------------------------------
  alpha Z        PSCENC =         0.04144063
  Ewald energy   TEWEN  =       703.07954446
  -Hartree energ DENC   =     -1117.32203397
  -exchange      EXHF   =         0.00000000
  -V(xc)+E(xc)   XCENC  =        51.42280034
  PAW double counting   =       428.37890668     -430.73533574
  entropy T*S    EENTRO =        -0.00000011
  eigenvalues    EBANDS =      -232.73783497
  atomic energy  EATOM  =       596.16534815
  Solvation  Ediel_sol  =         0.00000000
  ---------------------------------------------------
  free energy    TOTEN  =        -1.70716452 eV

  energy without entropy =       -1.70716441  energy(sigma->0) =       -1.70716446


--------------------------------------------------------------------------------------------------------




----------------------------------------- Iteration    1(   3)  ---------------------------------------


     EDDAV:  cpu time   91.7031: real time   91.6298
       DOS:  cpu time    0.0000: real time    0.0002
    --------------------------------------------
      LOOP:  cpu time   91.7061: real time   91.6331

 eigenvalue-minimisations  :   152
 total energy-change (2. order) :-0.3306616E+02  (-0.3299913E+02)
 number of electron      16.0000000 magnetization 
 augmentation part       16.0000000 magnetization 

 Free energy of the ion-electron system (eV)
  ---------------------------------------------------
  alpha Z        PSCENC =         0.04144063
  Ewald energy   TEWEN  =       703.07954446
  -Hartree energ DENC   =     -1117.32203397
  -exchange      EXHF   =         0.00000000
  -V(xc)+E(xc)   XCENC  =        51.42280034
  PAW double counting   =       428.37890668     -430.73533574
  entropy T*S    EENTRO =         0.00000000
  eigenvalues    EBANDS =      -265.80399697
  atomic energy  EATOM  =       596.16534815
  Solvation  Ediel_sol  =         0.00000000
  ---------------------------------------------------
  free energy    TOTEN  =       -34.77332641 eV

  energy without entropy =      -34.77332641  energy(sigma->0) =      -34.77332641


--------------------------------------------------------------------------------------------------------




----------------------------------------- Iteration    1(   4)  ---------------------------------------


     EDDAV:  cpu time   84.0352: real time   83.9667
       DOS:  cpu time    0.0000: real time    0.0002
    --------------------------------------------
      LOOP:  cpu time   84.0362: real time   83.9698

 eigenvalue-minimisations  :   136
 total energy-change (2. order) :-0.4214045E+01  (-0.4188666E+01)
 number of electron      16.0000000 magnetization 
 augmentation part       16.0000000 magnetization 

 Free energy of the ion-electron system (eV)
  ---------------------------------------------------
  alpha Z        PSCENC =         0.04144063
  Ewald energy   TEWEN  =       703.07954446
  -Hartree energ DENC   =     -1117.32203397
  -exchange      EXHF   =         0.00000000
  -V(xc)+E(xc)   XCENC  =        51.42280034
  PAW double counting   =       428.37890668     -430.73533574
  entropy T*S    EENTRO =         0.00000000
  eigenvalues    EBANDS =      -270.01804187
  atomic energy  EATOM  =       596.16534815
  Solvation  Ediel_sol  =         0.00000000
  ---------------------------------------------------
  free energy    TOTEN  =       -38.98737131 eV

  energy without entropy =      -38.98737131  energy(sigma->0) =      -38.98737131


--------------------------------------------------------------------------------------------------------




----------------------------------------- Iteration    1(   5)  ---------------------------------------


     EDDAV:  cpu time   79.9049: real time   79.8404
       DOS:  cpu time    0.0000: real time    0.0002
    CHARGE:  cpu time    5.8421: real time    5.8369
    MIXING:  cpu time    0.6869: real time    0.6866
    --------------------------------------------
      LOOP:  cpu time   86.4359: real time   86.3677

 eigenvalue-minimisations  :   128
 total energy-change (2. order) :-0.1156480E+00  (-0.1141701E+00)
 number of electron      16.0000013 magnetization 
 augmentation part        0.5210074 magnetization 

 Broyden mixing:
  rms(total) = 0.10394E+01    rms(broyden)= 0.10387E+01
  rms(prec ) = 0.10758E+01
  weight for this iteration     100.00

 Free energy of the ion-electron system (eV)
  ---------------------------------------------------
  alpha Z        PSCENC =         0.04144063
  Ewald energy   TEWEN  =       703.07954446
  -Hartree energ DENC   =     -1117.32203397
  -exchange      EXHF   =         0.00000000
  -V(xc)+E(xc)   XCENC  =        51.42280034
  PAW double counting   =       428.37890668     -430.73533574
  entropy T*S    EENTRO =         0.00000000
  eigenvalues    EBANDS =      -270.13368985
  atomic energy  EATOM  =       596.16534815
  Solvation  Ediel_sol  =         0.00000000
  ---------------------------------------------------
  free energy    TOTEN  =       -39.10301929 eV

  energy without entropy =      -39.10301929  energy(sigma->0) =      -39.10301929


--------------------------------------------------------------------------------------------------------




----------------------------------------- Iteration    1(   6)  ---------------------------------------


    POTLOK:  cpu time   23.8384: real time   23.8201
    SETDIJ:  cpu time    0.0080: real time    0.0083
     EDDAV:  cpu time   75.9874: real time   75.9247
       DOS:  cpu time    0.0000: real time    0.0002
    CHARGE:  cpu time    5.9251: real time    5.9205
    MIXING:  cpu time    0.7489: real time    0.7493
    --------------------------------------------
      LOOP:  cpu time  106.5108: real time  106.4269

 eigenvalue-minimisations  :   120
 total energy-change (2. order) : 0.2695980E+01  (-0.4608639E+00)
 number of electron      16.0000013 magnetization 
 augmentation part        0.4739642 magnetization 

 Broyden mixing:
  rms(total) = 0.56308E+00    rms(broyden)= 0.56297E+00
  rms(prec ) = 0.57849E+00
  weight for this iteration     100.00

 eigenvalues of (default mixing * dielectric matrix)
  average eigenvalue GAMMA=   1.6017
  1.6017

 Free energy of the ion-electron system (eV)
  ---------------------------------------------------
  alpha Z        PSCENC =         0.04144063
  Ewald energy   TEWEN  =       703.07954446
  -Hartree energ DENC   =     -1146.55563877
  -exchange      EXHF   =         0.00000000
  -V(xc)+E(xc)   XCENC  =        53.02734221
  PAW double counting   =       720.49513039     -723.18884295
  entropy T*S    EENTRO =         0.00000000
  eigenvalues    EBANDS =      -239.47136352
  atomic energy  EATOM  =       596.16534815
  Solvation  Ediel_sol  =         0.00000000
  ---------------------------------------------------
  free energy    TOTEN  =       -36.40703939 eV

  energy without entropy =      -36.40703939  energy(sigma->0) =      -36.40703939


--------------------------------------------------------------------------------------------------------




----------------------------------------- Iteration    1(   7)  ---------------------------------------


    POTLOK:  cpu time   24.6313: real time   24.6111
    SETDIJ:  cpu time    0.0080: real time    0.0081
     EDDAV:  cpu time   79.8009: real time   79.7364
       DOS:  cpu time    0.0000: real time    0.0002
    CHARGE:  cpu time    5.9451: real time    5.9399
    MIXING:  cpu time    0.7039: real time    0.7046
    --------------------------------------------
      LOOP:  cpu time  111.0921: real time  111.0041

 eigenvalue-minimisations  :   128
 total energy-change (2. order) : 0.6977323E+00  (-0.1788567E+00)
 number of electron      16.0000013 magnetization 
 augmentation part        0.4584472 magnetization 

 Broyden mixing:
  rms(total) = 0.22458E+00    rms(broyden)= 0.22451E+00
  rms(prec ) = 0.22973E+00
  weight for this iteration     100.00

 eigenvalues of (default mixing * dielectric matrix)
  average eigenvalue GAMMA=   1.5727
  1.0841  2.0614

 Free energy of the ion-electron system (eV)
  ---------------------------------------------------
  alpha Z        PSCENC =         0.04144063
  Ewald energy   TEWEN  =       703.07954446
  -Hartree energ DENC   =     -1166.25528675
  -exchange      EXHF   =         0.00000000
  -V(xc)+E(xc)   XCENC  =        54.28657556
  PAW double counting   =      1097.27534972    -1100.15758005
  entropy T*S    EENTRO =         0.00000000
  eigenvalues    EBANDS =      -220.14469886
  atomic energy  EATOM  =       596.16534815
  Solvation  Ediel_sol  =         0.00000000
  ---------------------------------------------------
  free energy    TOTEN  =       -35.70930714 eV

  energy without entropy =      -35.70930714  energy(sigma->0) =      -35.70930714


--------------------------------------------------------------------------------------------------------




----------------------------------------- Iteration    1(   8)  ---------------------------------------


    POTLOK:  cpu time   23.7614: real time   23.7421
    SETDIJ:  cpu time    0.0080: real time    0.0083
     EDDAV:  cpu time   80.1478: real time   80.0824
       DOS:  cpu time    0.0000: real time    0.0002
    CHARGE:  cpu time    5.8111: real time    5.8066
    MIXING:  cpu time    0.7339: real time    0.7337
    --------------------------------------------
      LOOP:  cpu time  110.4652: real time  110.3769

 eigenvalue-minimisations  :   128
 total energy-change (2. order) : 0.7114620E-01  (-0.1437449E-01)
 number of electron      16.0000013 magnetization 
 augmentation part        0.4497164 magnetization 

 Broyden mixing:
  rms(total) = 0.88037E-01    rms(broyden)= 0.88014E-01
  rms(prec ) = 0.92303E-01
  weight for this iteration     100.00

 eigenvalues of (default mixing * dielectric matrix)
  average eigenvalue GAMMA=   1.5903
  2.3172  0.8249  1.6286

 Free energy of the ion-electron system (eV)
  ---------------------------------------------------
  alpha Z        PSCENC =         0.04144063
  Ewald energy   TEWEN  =       703.07954446
  -Hartree energ DENC   =     -1172.71733422
  -exchange      EXHF   =         0.00000000
  -V(xc)+E(xc)   XCENC  =        54.70626979
  PAW double counting   =      1275.24793696    -1278.15195570
  entropy T*S    EENTRO =         0.00000000
  eigenvalues    EBANDS =      -214.00941100
  atomic energy  EATOM  =       596.16534815
  Solvation  Ediel_sol  =         0.00000000
  ---------------------------------------------------
  free energy    TOTEN  =       -35.63816094 eV

  energy without entropy =      -35.63816094  energy(sigma->0) =      -35.63816094


--------------------------------------------------------------------------------------------------------




----------------------------------------- Iteration    1(   9)  ---------------------------------------


    POTLOK:  cpu time   23.3844: real time   23.3654
    SETDIJ:  cpu time    0.0080: real time    0.0081
     EDDAV:  cpu time   75.7075: real time   75.6458
       DOS:  cpu time    0.0000: real time    0.0002
    CHARGE:  cpu time    5.7331: real time    5.7291
    MIXING:  cpu time    0.8189: real time    0.8181
    --------------------------------------------
      LOOP:  cpu time  105.6539: real time  105.5701

 eigenvalue-minimisations  :   120
 total energy-change (2. order) : 0.1844888E-01  (-0.2089357E-02)
 number of electron      16.0000013 magnetization 
 augmentation part        0.4503244 magnetization 

 Broyden mixing:
  rms(total) = 0.21647E-01    rms(broyden)= 0.21636E-01
  rms(prec ) = 0.27888E-01
  weight for this iteration     100.00

 eigenvalues of (default mixing * dielectric matrix)
  average eigenvalue GAMMA=   1.5465
  2.0193  2.0193  0.8488  1.2987

 Free energy of the ion-electron system (eV)
  ---------------------------------------------------
  alpha Z        PSCENC =         0.04144063
  Ewald energy   TEWEN  =       703.07954446
  -Hartree energ DENC   =     -1173.94581863
  -exchange      EXHF   =         0.00000000
  -V(xc)+E(xc)   XCENC  =        54.79051435
  PAW double counting   =      1341.02769063    -1343.90449657
  entropy T*S    EENTRO =         0.00000000
  eigenvalues    EBANDS =      -212.87393508
  atomic energy  EATOM  =       596.16534815
  Solvation  Ediel_sol  =         0.00000000
  ---------------------------------------------------
  free energy    TOTEN  =       -35.61971206 eV

  energy without entropy =      -35.61971206  energy(sigma->0) =      -35.61971206


--------------------------------------------------------------------------------------------------------




----------------------------------------- Iteration    1(  10)  ---------------------------------------


    POTLOK:  cpu time   23.3694: real time   23.3504
    SETDIJ:  cpu time    0.0080: real time    0.0085
     EDDAV:  cpu time   79.5359: real time   79.4703
       DOS:  cpu time    0.0000: real time    0.0002
    CHARGE:  cpu time    5.7391: real time    5.7348
    MIXING:  cpu time    0.8439: real time    0.8430
    --------------------------------------------
      LOOP:  cpu time  109.4984: real time  109.4106

 eigenvalue-minimisations  :   128
 total energy-change (2. order) : 0.2627974E-03  (-0.4241968E-03)
 number of electron      16.0000013 magnetization 
 augmentation part        0.4512118 magnetization 

 Broyden mixing:
  rms(total) = 0.13042E-01    rms(broyden)= 0.13034E-01
  rms(prec ) = 0.18718E-01
  weight for this iteration     100.00

 eigenvalues of (default mixing * dielectric matrix)
  average eigenvalue GAMMA=   1.5122
  2.1846  2.1846  0.8999  0.8999  1.3919

 Free energy of the ion-electron system (eV)
  ---------------------------------------------------
  alpha Z        PSCENC =         0.04144063
  Ewald energy   TEWEN  =       703.07954446
  -Hartree energ DENC   =     -1174.93207029
  -exchange      EXHF   =         0.00000000
  -V(xc)+E(xc)   XCENC  =        54.81397976
  PAW double counting   =      1336.22973377    -1339.10169891
  entropy T*S    EENTRO =         0.00000000
  eigenvalues    EBANDS =      -211.91572683
  atomic energy  EATOM  =       596.16534815
  Solvation  Ediel_sol  =         0.00000000
  ---------------------------------------------------
  free energy    TOTEN  =       -35.61944926 eV

  energy without entropy =      -35.61944926  energy(sigma->0) =      -35.61944926


--------------------------------------------------------------------------------------------------------




----------------------------------------- Iteration    1(  11)  ---------------------------------------


    POTLOK:  cpu time   23.3834: real time   23.3649
    SETDIJ:  cpu time    0.0080: real time    0.0083
     EDDAV:  cpu time   79.4869: real time   79.4210
       DOS:  cpu time    0.0000: real time    0.0002
    CHARGE:  cpu time    5.8661: real time    5.8607
    MIXING:  cpu time    0.8799: real time    0.8790
    --------------------------------------------
      LOOP:  cpu time  109.6253: real time  109.5376

 eigenvalue-minimisations  :   128
 total energy-change (2. order) :-0.1630334E-02  (-0.1749953E-03)
 number of electron      16.0000013 magnetization 
 augmentation part        0.4506781 magnetization 

 Broyden mixing:
  rms(total) = 0.80382E-02    rms(broyden)= 0.80366E-02
  rms(prec ) = 0.12948E-01
  weight for this iteration     100.00

 eigenvalues of (default mixing * dielectric matrix)
  average eigenvalue GAMMA=   1.6546
  2.6372  2.6372  1.4378  1.4378  0.8888  0.8888

 Free energy of the ion-electron system (eV)
  ---------------------------------------------------
  alpha Z        PSCENC =         0.04144063
  Ewald energy   TEWEN  =       703.07954446
  -Hartree energ DENC   =     -1175.97168780
  -exchange      EXHF   =         0.00000000
  -V(xc)+E(xc)   XCENC  =        54.84602980
  PAW double counting   =      1335.66102554    -1338.53177776
  entropy T*S    EENTRO =         0.00000000
  eigenvalues    EBANDS =      -210.91100262
  atomic energy  EATOM  =       596.16534815
  Solvation  Ediel_sol  =         0.00000000
  ---------------------------------------------------
  free energy    TOTEN  =       -35.62107960 eV

  energy without entropy =      -35.62107960  energy(sigma->0) =      -35.62107960


--------------------------------------------------------------------------------------------------------




----------------------------------------- Iteration    1(  12)  ---------------------------------------


    POTLOK:  cpu time   22.7605: real time   22.7433
    SETDIJ:  cpu time    0.0090: real time    0.0082
     EDDAV:  cpu time   75.4415: real time   75.3801
       DOS:  cpu time    0.0000: real time    0.0002
    CHARGE:  cpu time    5.8521: real time    5.8481
    MIXING:  cpu time    1.0078: real time    1.0077
    --------------------------------------------
      LOOP:  cpu time  105.0740: real time  104.9916

 eigenvalue-minimisations  :   120
 total energy-change (2. order) :-0.5635212E-02  (-0.3033014E-03)
 number of electron      16.0000013 magnetization 
 augmentation part        0.4503797 magnetization 

 Broyden mixing:
  rms(total) = 0.45578E-02    rms(broyden)= 0.45519E-02
  rms(prec ) = 0.73852E-02
  weight for this iteration     100.00

 eigenvalues of (default mixing * dielectric matrix)
  average eigenvalue GAMMA=   1.7906
  3.8847  2.2521  1.8571  1.5979  0.9022  1.0203  1.0203

 Free energy of the ion-electron system (eV)
  ---------------------------------------------------
  alpha Z        PSCENC =         0.04144063
  Ewald energy   TEWEN  =       703.07954446
  -Hartree energ DENC   =     -1177.19024041
  -exchange      EXHF   =         0.00000000
  -V(xc)+E(xc)   XCENC  =        54.87468039
  PAW double counting   =      1331.92743677    -1334.79593774
  entropy T*S    EENTRO =         0.00000000
  eigenvalues    EBANDS =      -209.72898706
  atomic energy  EATOM  =       596.16534815
  Solvation  Ediel_sol  =         0.00000000
  ---------------------------------------------------
  free energy    TOTEN  =       -35.62671481 eV

  energy without entropy =      -35.62671481  energy(sigma->0) =      -35.62671481


--------------------------------------------------------------------------------------------------------




----------------------------------------- Iteration    1(  13)  ---------------------------------------


    POTLOK:  cpu time   22.8415: real time   22.8226
    SETDIJ:  cpu time    0.0080: real time    0.0081
     EDDAV:  cpu time   79.8979: real time   79.8326
       DOS:  cpu time    0.0000: real time    0.0002
    CHARGE:  cpu time    5.6371: real time    5.6327
    MIXING:  cpu time    1.0778: real time    1.0765
    --------------------------------------------
      LOOP:  cpu time  109.4634: real time  109.3806

 eigenvalue-minimisations  :   128
 total energy-change (2. order) :-0.5984211E-02  (-0.1624561E-03)
 number of electron      16.0000013 magnetization 
 augmentation part        0.4502283 magnetization 

 Broyden mixing:
  rms(total) = 0.28313E-02    rms(broyden)= 0.28285E-02
  rms(prec ) = 0.43532E-02
  weight for this iteration     100.00

 eigenvalues of (default mixing * dielectric matrix)
  average eigenvalue GAMMA=   1.8892
  4.8977  2.3959  1.7585  1.7585  1.4676  0.8917  0.9717  0.9717

 Free energy of the ion-electron system (eV)
  ---------------------------------------------------
  alpha Z        PSCENC =         0.04144063
  Ewald energy   TEWEN  =       703.07954446
  -Hartree energ DENC   =     -1177.79647946
  -exchange      EXHF   =         0.00000000
  -V(xc)+E(xc)   XCENC  =        54.88202629
  PAW double counting   =      1331.29941572    -1334.16821159
  entropy T*S    EENTRO =         0.00000000
  eigenvalues    EBANDS =      -209.13578322
  atomic energy  EATOM  =       596.16534815
  Solvation  Ediel_sol  =         0.00000000
  ---------------------------------------------------
  free energy    TOTEN  =       -35.63269902 eV

  energy without entropy =      -35.63269902  energy(sigma->0) =      -35.63269902


--------------------------------------------------------------------------------------------------------




----------------------------------------- Iteration    1(  14)  ---------------------------------------


    POTLOK:  cpu time   23.4274: real time   23.4083
    SETDIJ:  cpu time    0.0080: real time    0.0082
     EDDAV:  cpu time   80.3968: real time   80.3311
       DOS:  cpu time    0.0000: real time    0.0002
    CHARGE:  cpu time    5.8681: real time    5.8645
    MIXING:  cpu time    1.1578: real time    1.1564
    --------------------------------------------
      LOOP:  cpu time  110.8601: real time  110.7728

 eigenvalue-minimisations  :   128
 total energy-change (2. order) :-0.4087084E-02  (-0.5037739E-04)
 number of electron      16.0000013 magnetization 
 augmentation part        0.4502420 magnetization 

 Broyden mixing:
  rms(total) = 0.18249E-02    rms(broyden)= 0.18242E-02
  rms(prec ) = 0.26734E-02
  weight for this iteration     100.00

 eigenvalues of (default mixing * dielectric matrix)
  average eigenvalue GAMMA=   1.9842
  5.1737  2.8201  2.4329  1.8703  1.5672  1.1054  1.1054  0.8915  0.8915

 Free energy of the ion-electron system (eV)
  ---------------------------------------------------
  alpha Z        PSCENC =         0.04144063
  Ewald energy   TEWEN  =       703.07954446
  -Hartree energ DENC   =     -1177.98091588
  -exchange      EXHF   =         0.00000000
  -V(xc)+E(xc)   XCENC  =        54.87588349
  PAW double counting   =      1329.74039525    -1332.60915103
  entropy T*S    EENTRO =         0.00000000
  eigenvalues    EBANDS =      -208.94933117
  atomic energy  EATOM  =       596.16534815
  Solvation  Ediel_sol  =         0.00000000
  ---------------------------------------------------
  free energy    TOTEN  =       -35.63678610 eV

  energy without entropy =      -35.63678610  energy(sigma->0) =      -35.63678610


--------------------------------------------------------------------------------------------------------




----------------------------------------- Iteration    1(  15)  ---------------------------------------


    POTLOK:  cpu time   23.5464: real time   23.5280
    SETDIJ:  cpu time    0.0090: real time    0.0082
     EDDAV:  cpu time   80.6567: real time   80.5903
       DOS:  cpu time    0.0000: real time    0.0002
    CHARGE:  cpu time    5.7031: real time    5.6981
    MIXING:  cpu time    1.1848: real time    1.1843
    --------------------------------------------
      LOOP:  cpu time  111.1011: real time  111.0133

 eigenvalue-minimisations  :   128
 total energy-change (2. order) :-0.3285334E-02  (-0.3642777E-04)
 number of electron      16.0000013 magnetization 
 augmentation part        0.4502827 magnetization 

 Broyden mixing:
  rms(total) = 0.11301E-02    rms(broyden)= 0.11300E-02
  rms(prec ) = 0.15474E-02
  weight for this iteration     100.00

 eigenvalues of (default mixing * dielectric matrix)
  average eigenvalue GAMMA=   2.0953
  6.5491  3.4766  2.3506  1.6252  1.6252  1.5689  0.8740  0.9305  0.9305  1.0222

 Free energy of the ion-electron system (eV)
  ---------------------------------------------------
  alpha Z        PSCENC =         0.04144063
  Ewald energy   TEWEN  =       703.07954446
  -Hartree energ DENC   =     -1178.01030526
  -exchange      EXHF   =         0.00000000
  -V(xc)+E(xc)   XCENC  =        54.86977796
  PAW double counting   =      1330.58407753    -1333.45305323
  entropy T*S    EENTRO =         0.00000000
  eigenvalues    EBANDS =      -208.91690167
  atomic energy  EATOM  =       596.16534815
  Solvation  Ediel_sol  =         0.00000000
  ---------------------------------------------------
  free energy    TOTEN  =       -35.64007144 eV

  energy without entropy =      -35.64007144  energy(sigma->0) =      -35.64007144


--------------------------------------------------------------------------------------------------------




----------------------------------------- Iteration    1(  16)  ---------------------------------------


    POTLOK:  cpu time   23.0785: real time   23.0594
    SETDIJ:  cpu time    0.0080: real time    0.0083
     EDDAV:  cpu time   80.7737: real time   80.7082
       DOS:  cpu time    0.0000: real time    0.0002
    CHARGE:  cpu time    5.9571: real time    5.9526
    MIXING:  cpu time    1.2008: real time    1.1996
    --------------------------------------------
      LOOP:  cpu time  111.0201: real time  110.9321

 eigenvalue-minimisations  :   128
 total energy-change (2. order) :-0.1191461E-02  (-0.1039772E-04)
 number of electron      16.0000013 magnetization 
 augmentation part        0.4502569 magnetization 

 Broyden mixing:
  rms(total) = 0.64736E-03    rms(broyden)= 0.64706E-03
  rms(prec ) = 0.89505E-03
  weight for this iteration     100.00

 eigenvalues of (default mixing * dielectric matrix)
  average eigenvalue GAMMA=   2.1583
  7.2485  3.4453  2.3161  2.3161  1.6526  1.6526  1.3350  0.9927  0.9927  0.8949
  0.8949

 Free energy of the ion-electron system (eV)
  ---------------------------------------------------
  alpha Z        PSCENC =         0.04144063
  Ewald energy   TEWEN  =       703.07954446
  -Hartree energ DENC   =     -1178.04161953
  -exchange      EXHF   =         0.00000000
  -V(xc)+E(xc)   XCENC  =        54.86777203
  PAW double counting   =      1330.47092579    -1333.33990630
  entropy T*S    EENTRO =         0.00000000
  eigenvalues    EBANDS =      -208.88476814
  atomic energy  EATOM  =       596.16534815
  Solvation  Ediel_sol  =         0.00000000
  ---------------------------------------------------
  free energy    TOTEN  =       -35.64126290 eV

  energy without entropy =      -35.64126290  energy(sigma->0) =      -35.64126290


--------------------------------------------------------------------------------------------------------




----------------------------------------- Iteration    1(  17)  ---------------------------------------


    POTLOK:  cpu time   23.6114: real time   23.5930
    SETDIJ:  cpu time    0.0090: real time    0.0087
     EDDAV:  cpu time   58.9160: real time   58.8665
       DOS:  cpu time    0.0000: real time    0.0002
    CHARGE:  cpu time    6.0061: real time    6.0015
    MIXING:  cpu time    1.3008: real time    1.3007
    --------------------------------------------
      LOOP:  cpu time   89.8453: real time   89.7744

 eigenvalue-minimisations  :    84
 total energy-change (2. order) :-0.8342777E-03  (-0.2822780E-05)
 number of electron      16.0000013 magnetization 
 augmentation part        0.4502285 magnetization 

 Broyden mixing:
  rms(total) = 0.40748E-03    rms(broyden)= 0.40731E-03
  rms(prec ) = 0.52991E-03
  weight for this iteration     100.00

 eigenvalues of (default mixing * dielectric matrix)
  average eigenvalue GAMMA=   2.2582
  8.0930  4.2741  2.7443  2.3526  1.6245  1.6245  1.5809  0.9850  0.9850  1.0695
  0.8828  0.8828

 Free energy of the ion-electron system (eV)
  ---------------------------------------------------
  alpha Z        PSCENC =         0.04144063
  Ewald energy   TEWEN  =       703.07954446
  -Hartree energ DENC   =     -1178.05017513
  -exchange      EXHF   =         0.00000000
  -V(xc)+E(xc)   XCENC  =        54.86667672
  PAW double counting   =      1330.35103898    -1333.21978432
  entropy T*S    EENTRO =         0.00000000
  eigenvalues    EBANDS =      -208.87618667
  atomic energy  EATOM  =       596.16534815
  Solvation  Ediel_sol  =         0.00000000
  ---------------------------------------------------
  free energy    TOTEN  =       -35.64209718 eV

  energy without entropy =      -35.64209718  energy(sigma->0) =      -35.64209718


--------------------------------------------------------------------------------------------------------




----------------------------------------- Iteration    1(  18)  ---------------------------------------


    POTLOK:  cpu time   23.3594: real time   23.3405
    SETDIJ:  cpu time    0.0080: real time    0.0083
     EDDAV:  cpu time   54.7417: real time   54.6969
       DOS:  cpu time    0.0000: real time    0.0002
    CHARGE:  cpu time    6.0491: real time    6.0438
    MIXING:  cpu time    1.3698: real time    1.3694
    --------------------------------------------
      LOOP:  cpu time   85.5300: real time   86.2885

 eigenvalue-minimisations  :    76
 total energy-change (2. order) :-0.3444579E-03  (-0.2489003E-05)
 number of electron      16.0000013 magnetization 
 augmentation part        0.4502310 magnetization 

 Broyden mixing:
  rms(total) = 0.27334E-03    rms(broyden)= 0.27329E-03
  rms(prec ) = 0.33482E-03
  weight for this iteration     100.00

 eigenvalues of (default mixing * dielectric matrix)
  average eigenvalue GAMMA=   2.3517
  8.4402  4.7532  2.6226  2.6226  2.5487  1.6724  1.6724  1.4367  1.0026  1.0026
  0.8952  0.8952  1.0081

 Free energy of the ion-electron system (eV)
  ---------------------------------------------------
  alpha Z        PSCENC =         0.04144063
  Ewald energy   TEWEN  =       703.07954446
  -Hartree energ DENC   =     -1178.04341325
  -exchange      EXHF   =         0.00000000
  -V(xc)+E(xc)   XCENC  =        54.86595120
  PAW double counting   =      1330.54593915    -1333.41470335
  entropy T*S    EENTRO =         0.00000000
  eigenvalues    EBANDS =      -208.88254862
  atomic energy  EATOM  =       596.16534815
  Solvation  Ediel_sol  =         0.00000000
  ---------------------------------------------------
  free energy    TOTEN  =       -35.64244164 eV

  energy without entropy =      -35.64244164  energy(sigma->0) =      -35.64244164


--------------------------------------------------------------------------------------------------------




----------------------------------------- Iteration    1(  19)  ---------------------------------------


    POTLOK:  cpu time   23.8084: real time   23.7895
    SETDIJ:  cpu time    0.0080: real time    0.0083
     EDDAV:  cpu time   56.2814: real time   56.2353
       DOS:  cpu time    0.0000: real time    0.0002
    CHARGE:  cpu time    5.8421: real time    5.8375
    MIXING:  cpu time    1.4358: real time    1.4342
    --------------------------------------------
      LOOP:  cpu time   87.3777: real time   87.3089

 eigenvalue-minimisations  :    80
 total energy-change (2. order) :-0.2260306E-03  (-0.9798332E-06)
 number of electron      16.0000013 magnetization 
 augmentation part        0.4502460 magnetization 

 Broyden mixing:
  rms(total) = 0.28749E-03    rms(broyden)= 0.28741E-03
  rms(prec ) = 0.30843E-03
  weight for this iteration     100.00

 eigenvalues of (default mixing * dielectric matrix)
  average eigenvalue GAMMA=   2.3280
  8.6607  5.3078  3.2465  2.5774  2.0529  1.8206  1.6074  1.6074  1.0195  1.0195
  1.0693  0.8797  0.8797  0.8446

 Free energy of the ion-electron system (eV)
  ---------------------------------------------------
  alpha Z        PSCENC =         0.04144063
  Ewald energy   TEWEN  =       703.07954446
  -Hartree energ DENC   =     -1178.03630790
  -exchange      EXHF   =         0.00000000
  -V(xc)+E(xc)   XCENC  =        54.86540835
  PAW double counting   =      1330.50345053    -1333.37233121
  entropy T*S    EENTRO =         0.00000000
  eigenvalues    EBANDS =      -208.88922067
  atomic energy  EATOM  =       596.16534815
  Solvation  Ediel_sol  =         0.00000000
  ---------------------------------------------------
  free energy    TOTEN  =       -35.64266767 eV

  energy without entropy =      -35.64266767  energy(sigma->0) =      -35.64266767


--------------------------------------------------------------------------------------------------------




----------------------------------------- Iteration    1(  20)  ---------------------------------------


    POTLOK:  cpu time   23.3405: real time   23.3223
    SETDIJ:  cpu time    0.0090: real time    0.0086
     EDDAV:  cpu time   64.3302: real time   64.2783
       DOS:  cpu time    0.0000: real time    0.0002
    --------------------------------------------
      LOOP:  cpu time   87.6817: real time   87.6990

 eigenvalue-minimisations  :    96
 total energy-change (2. order) :-0.3840230E-04  (-0.2632815E-06)
 number of electron      16.0000013 magnetization 
 augmentation part        0.4502460 magnetization 

 Free energy of the ion-electron system (eV)
  ---------------------------------------------------
  alpha Z        PSCENC =         0.04144063
  Ewald energy   TEWEN  =       703.07954446
  -Hartree energ DENC   =     -1178.03677428
  -exchange      EXHF   =         0.00000000
  -V(xc)+E(xc)   XCENC  =        54.86532281
  PAW double counting   =      1330.42761842    -1333.29644509
  entropy T*S    EENTRO =         0.00000000
  eigenvalues    EBANDS =      -208.88876117
  atomic energy  EATOM  =       596.16534815
  Solvation  Ediel_sol  =         0.00000000
  ---------------------------------------------------
  free energy    TOTEN  =       -35.64270607 eV

  energy without entropy =      -35.64270607  energy(sigma->0) =      -35.64270607


--------------------------------------------------------------------------------------------------------




 average (electrostatic) potential at core
  the test charge radii are     0.5201  0.6991  0.7089
  (the norm of the test charge is              1.0000)
       1 -43.0734       2 -43.0677       3 -43.0743       4 -60.5364       5 -59.3453
       6 -74.8382
 
 
 
 E-fermi :  -6.1937     XC(G=0):  -0.0946     alpha+bet : -0.0137


 k-point     1 :       0.2500    0.2500    0.2500
  band No.  band energies     occupation 
      1     -23.9039      2.00000
      2     -19.3026      2.00000
      3     -13.8935      2.00000
      4     -11.7985      2.00000
      5     -11.7883      2.00000
      6      -8.3099      2.00000
      7      -8.3068      2.00000
      8      -7.1409      2.00000
      9      -0.7689      0.00000
     10      -0.6617      0.00000
     11      -0.6568      0.00000
     12      -0.0129      0.00000

 k-point     2 :      -0.2500    0.2500    0.2500
  band No.  band energies     occupation 
      1     -23.9039      2.00000
      2     -19.3026      2.00000
      3     -13.8935      2.00000
      4     -11.7985      2.00000
      5     -11.7883      2.00000
      6      -8.3099      2.00000
      7      -8.3068      2.00000
      8      -7.1409      2.00000
      9      -0.7689      0.00000
     10      -0.6617      0.00000
     11      -0.6568      0.00000
     12      -0.0127      0.00000

 k-point     3 :       0.2500   -0.2500    0.2500
  band No.  band energies     occupation 
      1     -23.9039      2.00000
      2     -19.3026      2.00000
      3     -13.8935      2.00000
      4     -11.7985      2.00000
      5     -11.7883      2.00000
      6      -8.3099      2.00000
      7      -8.3068      2.00000
      8      -7.1409      2.00000
      9      -0.7689      0.00000
     10      -0.6617      0.00000
     11      -0.6568      0.00000
     12      -0.0130      0.00000

 k-point     4 :      -0.2500   -0.2500    0.2500
  band No.  band energies     occupation 
      1     -23.9039      2.00000
      2     -19.3026      2.00000
      3     -13.8935      2.00000
      4     -11.7985      2.00000
      5     -11.7883      2.00000
      6      -8.3099      2.00000
      7      -8.3068      2.00000
      8      -7.1409      2.00000
      9      -0.7689      0.00000
     10      -0.6616      0.00000
     11      -0.6568      0.00000
     12      -0.0128      0.00000


--------------------------------------------------------------------------------------------------------


 soft charge-density along one line, spin component           1
         0         1         2         3         4         5         6         7         8         9
 total charge-density along one line
 
 pseudopotential strength for first ion, spin component:           1
 -2.362  -4.075  -0.002   0.000  -0.001
 -4.075  -6.942  -0.005   0.000  -0.003
 -0.002  -0.005  -0.330   0.000   0.002
  0.000   0.000   0.000  -0.334   0.000
 -0.001  -0.003   0.002   0.000  -0.333
 total augmentation occupancy for first ion, spin component:           1
  3.519  -0.634   0.391   0.011   0.209
 -0.634   0.131  -0.073  -0.002  -0.038
  0.391  -0.073   0.045   0.001   0.021
  0.011  -0.002   0.001   0.009   0.001
  0.209  -0.038   0.021   0.001   0.017


------------------------ aborting loop because EDIFF is reached ----------------------------------------


    CHARGE:  cpu time    5.6281: real time    5.6241
    FORLOC:  cpu time    2.8886: real time    2.8854
    FORNL :  cpu time   18.3032: real time   18.2888
    STRESS:  cpu time   57.4213: real time   57.3736
    FORCOR:  cpu time   23.3005: real time   23.2814
    FORHAR:  cpu time    8.2198: real time    8.2123
    MIXING:  cpu time    1.4418: real time    1.4408
    OFIELD:  cpu time    0.0000: real time    0.0000

  FORCE on cell =-STRESS in cart. coord.  units (eV):
  Direction    XX          YY          ZZ          XY          YZ          ZX
  --------------------------------------------------------------------------------------
  Alpha Z     0.04144     0.04144     0.04144
  Ewald     614.54260    49.56081    38.97591   -76.86100    -0.56320     3.60377
  Hartree   591.81620   295.86320   290.36237   -40.27248    -0.40147     2.64305
  E(xc)     -58.78915   -60.17693   -60.20325    -0.18860    -0.00079     0.00314
  Local   -1345.15834  -519.81145  -504.41173   112.31619     0.96667    -6.24327
  n-local   -26.68075   -24.42280   -24.39087     0.29082    -0.01166     0.07597
  augment     0.46160     0.98881     0.99764     0.07125     0.00002    -0.00286
  Kinetic   223.09260   256.92486   257.61681     4.60717     0.02358    -0.07461
  Fock        0.00000     0.00000     0.00000     0.00000     0.00000     0.00000
  -------------------------------------------------------------------------------------
  Total      -0.67379    -1.03207    -1.01168    -0.03665     0.01315     0.00518
  in kB      -0.03998    -0.06124    -0.06003    -0.00217     0.00078     0.00031
  external pressure =       -0.05 kB  Pullay stress =        0.00 kB


 VOLUME and BASIS-vectors are now :
 -----------------------------------------------------------------------------
  energy-cutoff  :      400.00
  volume of cell :    27000.00
      direct lattice vectors                 reciprocal lattice vectors
    30.000000000  0.000000000  0.000000000     0.033333333  0.000000000  0.000000000
     0.000000000 30.000000000  0.000000000     0.000000000  0.033333333  0.000000000
     0.000000000  0.000000000 30.000000000     0.000000000  0.000000000  0.033333333

  length of vectors
    30.000000000 30.000000000 30.000000000     0.033333333  0.033333333  0.033333333


 FORCES acting on ions
    electron-ion (+dipol)            ewald-force                    non-local-force                 convergence-correction
 -----------------------------------------------------------------------------------------------
   0.418E+02 0.523E+02 0.175E+01   -.445E+02 -.573E+02 -.190E+01   0.268E+01 0.499E+01 0.145E+00   0.127E-04 0.336E-03 0.117E-04
   0.291E+02 -.340E+02 0.498E+02   -.305E+02 0.370E+02 -.544E+02   0.149E+01 -.298E+01 0.457E+01   -.640E-04 -.165E-03 0.287E-03
   0.314E+02 -.323E+02 -.496E+02   -.331E+02 0.352E+02 0.542E+02   0.173E+01 -.283E+01 -.460E+01   -.443E-04 -.163E-03 -.293E-03
   0.120E+03 -.162E+02 0.196E+01   -.128E+03 0.173E+02 -.213E+01   0.746E+01 -.101E+01 0.159E+00   -.177E-02 0.233E-03 0.139E-04
   -.229E+03 0.302E+02 0.596E+00   0.255E+03 -.337E+02 -.816E+00   -.264E+02 0.345E+01 0.244E+00   0.210E-02 -.279E-03 -.237E-04
   0.165E+02 -.129E+01 -.452E+01   -.197E+02 0.161E+01 0.503E+01   0.307E+01 -.300E+00 -.552E+00   -.207E-02 0.273E-03 0.196E-04
 -----------------------------------------------------------------------------------------------
   0.991E+01 -.133E+01 0.246E-01   0.000E+00 0.355E-14 -.711E-14   -.993E+01 0.132E+01 -.304E-01   -.183E-02 0.235E-03 0.154E-04
 
 
 POSITION                                       TOTAL-FORCE (eV/Angst)
 -----------------------------------------------------------------------------------
     14.01185     14.09123     14.96823         0.014979      0.015977      0.001169
     14.24193     15.64259     14.10402         0.019833     -0.026902      0.023059
     14.19806     15.61269     15.89081         0.024088     -0.010809      0.006090
     14.52493     15.06358     14.99605        -0.078929      0.019848     -0.011978
     17.09645     14.71862     15.01675         0.119863     -0.015344      0.025032
     15.92714     14.87215     15.02405        -0.099834      0.017230     -0.043372
 -----------------------------------------------------------------------------------
    total drift:                               -0.013617     -0.009582     -0.005836


--------------------------------------------------------------------------------------------------------



  FREE ENERGIE OF THE ION-ELECTRON SYSTEM (eV)
  ---------------------------------------------------
  free  energy   TOTEN  =       -35.64270607 eV

  energy  without entropy=      -35.64270607  energy(sigma->0) =      -35.64270607
 


--------------------------------------------------------------------------------------------------------


    POTLOK:  cpu time   20.6789: real time   20.6620


--------------------------------------------------------------------------------------------------------


 NEB: the previous image is higher in energy: F
 NEB: the next image is higher in energy    : T
 NEB: only next energy greater

 NEB: Tangent
 ----------------------------------------------
     -0.15775      0.27235      0.40562
     -0.02955     -0.02999      0.00546
      0.35465      0.36950     -0.03565
      0.02557      0.12096      0.07065
     -0.13730     -0.52079     -0.30438
     -0.05540     -0.21180     -0.14179

 NEB: forces: par spring, perp REAL, dneb     0.415212    0.192362    0.000000
 NEB: distance to prev, next image, angle between     0.641971    0.725013   94.468610
 NEB: projections on to tangent (spring, REAL)     0.415212   -0.001378

 stress matrix after NEB project (eV)
     -0.67379     -0.03665      0.00518
     -0.03665     -1.03207      0.01315
      0.00518      0.01315     -1.01168
  FORCES: max atom, RMS     0.261241    0.186817
  FORCE total and by dimension    0.457607    0.232299
  Stress total and by dimension    1.595535    1.032067
 
 OPT: Flag T
 OPT: FIRE Step
 OPT: FIRE, TIMESTEP      0.10000
 OPT: FIRE, alpha         0.10000


--------------------------------------------------------------------------------------------------------


    WAVPRE:  cpu time    9.8565: real time    9.8486
 FEWALD executed in parallel
    FEWALD:  cpu time    0.0000: real time    0.0003
    ORTHCH:  cpu time    6.8750: real time    6.8692
     LOOP+:  cpu time 2410.6575: real time 2409.6618


----------------------------------------- Iteration    2(   1)  ---------------------------------------


    POTLOK:  cpu time   27.4508: real time   27.4283
    SETDIJ:  cpu time    0.0080: real time    0.0085
     EDDAV:  cpu time   67.2498: real time   67.1949
       DOS:  cpu time    0.0010: real time    0.0002
    CHARGE:  cpu time    6.1171: real time    6.1133
    MIXING:  cpu time    0.6429: real time    0.6421
    --------------------------------------------
      LOOP:  cpu time  101.4716: real time  101.3898

 eigenvalue-minimisations  :    96
 total energy-change (2. order) :-0.1973208E-03  (-0.3555597E-02)
 number of electron      16.0000014 magnetization 
 augmentation part        0.4497837 magnetization 

 Broyden mixing:
  rms(total) = 0.52679E-02    rms(broyden)= 0.52488E-02
  rms(prec ) = 0.53849E-02
  weight for this iteration     100.00

 Free energy of the ion-electron system (eV)
  ---------------------------------------------------
  alpha Z        PSCENC =         0.04144063
  Ewald energy   TEWEN  =       702.82061490
  -Hartree energ DENC   =     -1177.88265266
  -exchange      EXHF   =         0.00000000
  -V(xc)+E(xc)   XCENC  =        54.86132968
  PAW double counting   =      1330.46483299    -1333.33365608
  entropy T*S    EENTRO =         0.00000000
  eigenvalues    EBANDS =      -208.78012259
  atomic energy  EATOM  =       596.16534815
  Solvation  Ediel_sol  =         0.00000000
  ---------------------------------------------------
  free energy    TOTEN  =       -35.64286499 eV

  energy without entropy =      -35.64286499  energy(sigma->0) =      -35.64286499


--------------------------------------------------------------------------------------------------------




----------------------------------------- Iteration    2(   2)  ---------------------------------------


    POTLOK:  cpu time   23.4604: real time   23.4418
    SETDIJ:  cpu time    0.0080: real time    0.0082
     EDDAV:  cpu time   81.7666: real time   81.6991
       DOS:  cpu time    0.0000: real time    0.0002
    CHARGE:  cpu time    5.8561: real time    5.8520
    MIXING:  cpu time    0.7269: real time    0.7257
    --------------------------------------------
      LOOP:  cpu time  111.8200: real time  111.7306

 eigenvalue-minimisations  :   128
 total energy-change (2. order) :-0.9638143E-05  (-0.6138797E-04)
 number of electron      16.0000014 magnetization 
 augmentation part        0.4495212 magnetization 

 Broyden mixing:
  rms(total) = 0.34872E-02    rms(broyden)= 0.34840E-02
  rms(prec ) = 0.35671E-02
  weight for this iteration     100.00

 eigenvalues of (default mixing * dielectric matrix)
  average eigenvalue GAMMA=   1.0677
  1.0677

 Free energy of the ion-electron system (eV)
  ---------------------------------------------------
  alpha Z        PSCENC =         0.04144063
  Ewald energy   TEWEN  =       702.82061490
  -Hartree energ DENC   =     -1177.86842946
  -exchange      EXHF   =         0.00000000
  -V(xc)+E(xc)   XCENC  =        54.86006089
  PAW double counting   =      1329.85268175    -1332.72077186
  entropy T*S    EENTRO =         0.00000000
  eigenvalues    EBANDS =      -208.79381962
  atomic energy  EATOM  =       596.16534815
  Solvation  Ediel_sol  =         0.00000000
  ---------------------------------------------------
  free energy    TOTEN  =       -35.64287462 eV

  energy without entropy =      -35.64287462  energy(sigma->0) =      -35.64287462


--------------------------------------------------------------------------------------------------------




----------------------------------------- Iteration    2(   3)  ---------------------------------------


    POTLOK:  cpu time   23.7104: real time   23.6918
    SETDIJ:  cpu time    0.0080: real time    0.0082
     EDDAV:  cpu time   64.8061: real time   64.7528
       DOS:  cpu time    0.0000: real time    0.0002
    CHARGE:  cpu time    5.8851: real time    5.8809
    MIXING:  cpu time    0.7629: real time    0.7623
    --------------------------------------------
      LOOP:  cpu time   95.1745: real time   95.1001

 eigenvalue-minimisations  :    96
 total energy-change (2. order) : 0.7978760E-05  (-0.5411795E-05)
 number of electron      16.0000014 magnetization 
 augmentation part        0.4495994 magnetization 

 Broyden mixing:
  rms(total) = 0.18032E-02    rms(broyden)= 0.18029E-02
  rms(prec ) = 0.18314E-02
  weight for this iteration     100.00

 eigenvalues of (default mixing * dielectric matrix)
  average eigenvalue GAMMA=   1.4825
  0.9407  2.0243

 Free energy of the ion-electron system (eV)
  ---------------------------------------------------
  alpha Z        PSCENC =         0.04144063
  Ewald energy   TEWEN  =       702.82061490
  -Hartree energ DENC   =     -1177.83552553
  -exchange      EXHF   =         0.00000000
  -V(xc)+E(xc)   XCENC  =        54.85836852
  PAW double counting   =      1329.17352571    -1332.04098242
  entropy T*S    EENTRO =         0.00000000
  eigenvalues    EBANDS =      -208.82565660
  atomic energy  EATOM  =       596.16534815
  Solvation  Ediel_sol  =         0.00000000
  ---------------------------------------------------
  free energy    TOTEN  =       -35.64286665 eV

  energy without entropy =      -35.64286665  energy(sigma->0) =      -35.64286665


--------------------------------------------------------------------------------------------------------




----------------------------------------- Iteration    2(   4)  ---------------------------------------


    POTLOK:  cpu time   24.0343: real time   24.0154
    SETDIJ:  cpu time    0.0090: real time    0.0083
     EDDAV:  cpu time   48.3407: real time   48.3009
[...]
  ---------------------------------------------------
  free energy    TOTEN  =       -35.64334613 eV

  energy without entropy =      -35.64334613  energy(sigma->0) =      -35.64334613


--------------------------------------------------------------------------------------------------------




----------------------------------------- Iteration  135(   2)  ---------------------------------------


    POTLOK:  cpu time   24.8212: real time   24.8019
    SETDIJ:  cpu time    0.0080: real time    0.0083
     EDDAV:  cpu time   47.8227: real time   47.7839
       DOS:  cpu time    0.0000: real time    0.0002
    CHARGE:  cpu time    6.1151: real time    6.1101
    MIXING:  cpu time    0.7399: real time    0.7398
    --------------------------------------------
      LOOP:  cpu time   79.5099: real time   79.4485

 eigenvalue-minimisations  :    48
 total energy-change (2. order) :-0.4413175E-07  (-0.3069196E-07)
 number of electron      16.0000025 magnetization 
 augmentation part        0.4496831 magnetization 

 Broyden mixing:
  rms(total) = 0.37354E-04    rms(broyden)= 0.37310E-04
  rms(prec ) = 0.37954E-04
  weight for this iteration     100.00

 eigenvalues of (default mixing * dielectric matrix)
  average eigenvalue GAMMA=   1.3587
  1.3587

 Free energy of the ion-electron system (eV)
  ---------------------------------------------------
  alpha Z        PSCENC =         0.04144063
  Ewald energy   TEWEN  =       702.66587010
  -Hartree energ DENC   =     -1177.68948181
  -exchange      EXHF   =         0.00000000
  -V(xc)+E(xc)   XCENC  =        54.85729335
  PAW double counting   =      1327.90513179    -1330.77247670
  entropy T*S    EENTRO =         0.00000000
  eigenvalues    EBANDS =      -208.81647168
  atomic energy  EATOM  =       596.16534815
  Solvation  Ediel_sol  =         0.00000000
  ---------------------------------------------------
  free energy    TOTEN  =       -35.64334618 eV

  energy without entropy =      -35.64334618  energy(sigma->0) =      -35.64334618


--------------------------------------------------------------------------------------------------------




----------------------------------------- Iteration  135(   3)  ---------------------------------------


    POTLOK:  cpu time   23.8734: real time   23.8535
    SETDIJ:  cpu time    0.0080: real time    0.0084
     EDDAV:  cpu time   44.9812: real time   44.9442
       DOS:  cpu time    0.0000: real time    0.0002
    CHARGE:  cpu time    6.0981: real time    6.0927
    MIXING:  cpu time    0.8269: real time    0.8265
    --------------------------------------------
      LOOP:  cpu time   75.7885: real time   75.7289

 eigenvalue-minimisations  :    48
 total energy-change (2. order) :-0.2445654E-07  (-0.5148839E-08)
 number of electron      16.0000025 magnetization 
 augmentation part        0.4496829 magnetization 

 Broyden mixing:
  rms(total) = 0.21532E-04    rms(broyden)= 0.21516E-04
  rms(prec ) = 0.21859E-04
  weight for this iteration     100.00

 eigenvalues of (default mixing * dielectric matrix)
  average eigenvalue GAMMA=   1.6589
  1.0741  2.2437

 Free energy of the ion-electron system (eV)
  ---------------------------------------------------
  alpha Z        PSCENC =         0.04144063
  Ewald energy   TEWEN  =       702.66587010
  -Hartree energ DENC   =     -1177.68999116
  -exchange      EXHF   =         0.00000000
  -V(xc)+E(xc)   XCENC  =        54.85732022
  PAW double counting   =      1327.91430793    -1330.78166159
  entropy T*S    EENTRO =         0.00000000
  eigenvalues    EBANDS =      -208.81598047
  atomic energy  EATOM  =       596.16534815
  Solvation  Ediel_sol  =         0.00000000
  ---------------------------------------------------
  free energy    TOTEN  =       -35.64334620 eV

  energy without entropy =      -35.64334620  energy(sigma->0) =      -35.64334620


--------------------------------------------------------------------------------------------------------




----------------------------------------- Iteration  135(   4)  ---------------------------------------


    POTLOK:  cpu time   23.9604: real time   23.9412
    SETDIJ:  cpu time    0.0090: real time    0.0086
     EDDAV:  cpu time   44.6232: real time   44.5865
       DOS:  cpu time    0.0000: real time    0.0002
    CHARGE:  cpu time    6.2830: real time    6.2780
    MIXING:  cpu time    0.8179: real time    0.8174
    --------------------------------------------
      LOOP:  cpu time   75.6945: real time   75.6361

 eigenvalue-minimisations  :    48
 total energy-change (2. order) :-0.2126922E-07  (-0.2490596E-08)
 number of electron      16.0000025 magnetization 
 augmentation part        0.4496825 magnetization 

 Broyden mixing:
  rms(total) = 0.72574E-05    rms(broyden)= 0.72481E-05
  rms(prec ) = 0.73223E-05
  weight for this iteration     100.00

 eigenvalues of (default mixing * dielectric matrix)
  average eigenvalue GAMMA=   1.6059
  0.9300  1.9439  1.9439

 Free energy of the ion-electron system (eV)
  ---------------------------------------------------
  alpha Z        PSCENC =         0.04144063
  Ewald energy   TEWEN  =       702.66587010
  -Hartree energ DENC   =     -1177.69028717
  -exchange      EXHF   =         0.00000000
  -V(xc)+E(xc)   XCENC  =        54.85733517
  PAW double counting   =      1327.92405540    -1330.79141384
  entropy T*S    EENTRO =         0.00000000
  eigenvalues    EBANDS =      -208.81569467
  atomic energy  EATOM  =       596.16534815
  Solvation  Ediel_sol  =         0.00000000
  ---------------------------------------------------
  free energy    TOTEN  =       -35.64334622 eV

  energy without entropy =      -35.64334622  energy(sigma->0) =      -35.64334622


--------------------------------------------------------------------------------------------------------




----------------------------------------- Iteration  135(   5)  ---------------------------------------


    POTLOK:  cpu time   24.1293: real time   24.1088
    SETDIJ:  cpu time    0.0080: real time    0.0087
     EDDAV:  cpu time   46.8249: real time   46.7869
       DOS:  cpu time    0.0000: real time    0.0002
    CHARGE:  cpu time    6.0501: real time    6.0465
    MIXING:  cpu time    0.8469: real time    0.8452
    --------------------------------------------
      LOOP:  cpu time   77.8612: real time   77.7999

 eigenvalue-minimisations  :    48
 total energy-change (2. order) :-0.9238647E-08  (-0.1807286E-08)
 number of electron      16.0000025 magnetization 
 augmentation part        0.4496826 magnetization 

 Broyden mixing:
  rms(total) = 0.48640E-05    rms(broyden)= 0.48616E-05
  rms(prec ) = 0.49207E-05
  weight for this iteration     100.00

 eigenvalues of (default mixing * dielectric matrix)
  average eigenvalue GAMMA=   1.6722
  2.4457  2.4457  0.9872  0.8102

 Free energy of the ion-electron system (eV)
  ---------------------------------------------------
  alpha Z        PSCENC =         0.04144063
  Ewald energy   TEWEN  =       702.66587010
  -Hartree energ DENC   =     -1177.69020063
  -exchange      EXHF   =         0.00000000
  -V(xc)+E(xc)   XCENC  =        54.85733102
  PAW double counting   =      1327.92655738    -1330.79391434
  entropy T*S    EENTRO =         0.00000000
  eigenvalues    EBANDS =      -208.81577855
  atomic energy  EATOM  =       596.16534815
  Solvation  Ediel_sol  =         0.00000000
  ---------------------------------------------------
  free energy    TOTEN  =       -35.64334623 eV

  energy without entropy =      -35.64334623  energy(sigma->0) =      -35.64334623


--------------------------------------------------------------------------------------------------------




----------------------------------------- Iteration  135(   6)  ---------------------------------------


    POTLOK:  cpu time   24.4663: real time   24.4468
    SETDIJ:  cpu time    0.0080: real time    0.0085
     EDDAV:  cpu time   45.2521: real time   45.2151
       DOS:  cpu time    0.0000: real time    0.0002
    --------------------------------------------
      LOOP:  cpu time   69.7284: real time   69.6746

 eigenvalue-minimisations  :    48
 total energy-change (2. order) :-0.8842449E-08  (-0.1604905E-08)
 number of electron      16.0000025 magnetization 
 augmentation part        0.4496826 magnetization 

 Free energy of the ion-electron system (eV)
  ---------------------------------------------------
  alpha Z        PSCENC =         0.04144063
  Ewald energy   TEWEN  =       702.66587010
  -Hartree energ DENC   =     -1177.69017197
  -exchange      EXHF   =         0.00000000
  -V(xc)+E(xc)   XCENC  =        54.85732932
  PAW double counting   =      1327.92922384    -1330.79658016
  entropy T*S    EENTRO =         0.00000000
  eigenvalues    EBANDS =      -208.81580615
  atomic energy  EATOM  =       596.16534815
  Solvation  Ediel_sol  =         0.00000000
  ---------------------------------------------------
  free energy    TOTEN  =       -35.64334624 eV

  energy without entropy =      -35.64334624  energy(sigma->0) =      -35.64334624


--------------------------------------------------------------------------------------------------------




 average (electrostatic) potential at core
  the test charge radii are     0.5201  0.6991  0.7089
  (the norm of the test charge is              1.0000)
       1 -43.0787       2 -43.0795       3 -43.0798       4 -60.5361       5 -59.3477
       6 -74.8313
 
 
 
 E-fermi :  -6.1634     XC(G=0):  -0.0619     alpha+bet : -0.0137


 k-point     1 :       0.2500    0.2500    0.2500
  band No.  band energies     occupation 
      1     -23.8872      2.00000
      2     -19.2970      2.00000
      3     -13.8823      2.00000
      4     -11.7966      2.00000
      5     -11.7950      2.00000
      6      -8.3032      2.00000
      7      -8.3028      2.00000
      8      -7.1437      2.00000
      9      -0.7634      0.00000
     10      -0.6637      0.00000
     11      -0.6622      0.00000
     12       0.0232      0.00000

 k-point     2 :      -0.2500    0.2500    0.2500
  band No.  band energies     occupation 
      1     -23.8872      2.00000
      2     -19.2970      2.00000
      3     -13.8823      2.00000
      4     -11.7966      2.00000
      5     -11.7950      2.00000
      6      -8.3032      2.00000
      7      -8.3028      2.00000
      8      -7.1437      2.00000
      9      -0.7634      0.00000
     10      -0.6637      0.00000
     11      -0.6622      0.00000
     12       0.0232      0.00000

 k-point     3 :       0.2500   -0.2500    0.2500
  band No.  band energies     occupation 
      1     -23.8872      2.00000
      2     -19.2970      2.00000
      3     -13.8823      2.00000
      4     -11.7966      2.00000
      5     -11.7950      2.00000
      6      -8.3032      2.00000
      7      -8.3028      2.00000
      8      -7.1437      2.00000
      9      -0.7634      0.00000
     10      -0.6637      0.00000
     11      -0.6622      0.00000
     12       0.0231      0.00000

 k-point     4 :      -0.2500   -0.2500    0.2500
  band No.  band energies     occupation 
      1     -23.8872      2.00000
      2     -19.2970      2.00000
      3     -13.8823      2.00000
      4     -11.7966      2.00000
      5     -11.7950      2.00000
      6      -8.3032      2.00000
      7      -8.3028      2.00000
      8      -7.1437      2.00000
      9      -0.7634      0.00000
     10      -0.6637      0.00000
     11      -0.6622      0.00000
     12       0.0233      0.00000


--------------------------------------------------------------------------------------------------------


 soft charge-density along one line, spin component           1
         0         1         2         3         4         5         6         7         8         9
 total charge-density along one line
 
 pseudopotential strength for first ion, spin component:           1
 -2.363  -4.075  -0.002   0.000  -0.001
 -4.075  -6.942  -0.005   0.000  -0.003
 -0.002  -0.005  -0.330   0.000   0.002
  0.000   0.000   0.000  -0.334   0.000
 -0.001  -0.003   0.002   0.000  -0.333
 total augmentation occupancy for first ion, spin component:           1
  3.521  -0.634   0.397   0.009   0.201
 -0.634   0.131  -0.073  -0.002  -0.037
  0.397  -0.073   0.046   0.001   0.020
  0.009  -0.002   0.001   0.009   0.000
  0.201  -0.037   0.020   0.000   0.016


------------------------ aborting loop because EDIFF is reached ----------------------------------------


    CHARGE:  cpu time    5.9451: real time    5.9398
    FORLOC:  cpu time    2.8156: real time    2.8134
    FORNL :  cpu time   20.5279: real time   20.5117
    STRESS:  cpu time   59.0150: real time   58.9661
    FORCOR:  cpu time   21.9687: real time   21.9508
    FORHAR:  cpu time    8.0628: real time    8.0564
    MIXING:  cpu time    0.8399: real time    0.8387
    OFIELD:  cpu time    0.0000: real time    0.0000

  FORCE on cell =-STRESS in cart. coord.  units (eV):
  Direction    XX          YY          ZZ          XY          YZ          ZX
  --------------------------------------------------------------------------------------
  Alpha Z     0.04144     0.04144     0.04144
  Ewald     616.63860    46.64771    39.37925   -65.30038    -1.02930     8.89083
  Hartree   593.15249   294.19063   290.34708   -34.26727    -0.54401     4.71145
  E(xc)     -58.77579   -60.17629   -60.19365    -0.15999    -0.00248     0.02135
  Local   -1348.61147  -515.36849  -504.69940    95.50013     1.51025   -13.06128
  n-local   -26.66074   -24.39952   -24.37501     0.24842     0.00207    -0.02924
  augment     0.46414     0.99072     0.99710     0.06025     0.00074    -0.00785
  Kinetic   222.90310   257.06459   257.50032     3.90216     0.06040    -0.51738
  Fock        0.00000     0.00000     0.00000     0.00000     0.00000     0.00000
  -------------------------------------------------------------------------------------
  Total      -0.84823    -1.00922    -1.00287    -0.01666    -0.00232     0.00788
  in kB      -0.05033    -0.05989    -0.05951    -0.00099    -0.00014     0.00047
  external pressure =       -0.06 kB  Pullay stress =        0.00 kB


 VOLUME and BASIS-vectors are now :
 -----------------------------------------------------------------------------
  energy-cutoff  :      400.00
  volume of cell :    27000.00
      direct lattice vectors                 reciprocal lattice vectors
    30.000000000  0.000000000  0.000000000     0.033333333  0.000000000  0.000000000
     0.000000000 30.000000000  0.000000000     0.000000000  0.033333333  0.000000000
     0.000000000  0.000000000 30.000000000     0.000000000  0.000000000  0.033333333

  length of vectors
    30.000000000 30.000000000 30.000000000     0.033333333  0.033333333  0.033333333


 FORCES acting on ions
    electron-ion (+dipol)            ewald-force                    non-local-force                 convergence-correction
 -----------------------------------------------------------------------------------------------
   0.407E+02 0.532E+02 0.139E+01   -.433E+02 -.583E+02 -.150E+01   0.258E+01 0.506E+01 0.110E+00   -.153E-05 -.171E-05 0.799E-06
   0.299E+02 -.331E+02 0.500E+02   -.314E+02 0.361E+02 -.546E+02   0.157E+01 -.293E+01 0.460E+01   -.282E-06 0.831E-07 -.119E-05
   0.317E+02 -.319E+02 -.497E+02   -.334E+02 0.347E+02 0.543E+02   0.174E+01 -.281E+01 -.461E+01   -.126E-05 0.116E-05 0.927E-06
   0.120E+03 -.138E+02 0.192E+01   -.128E+03 0.147E+02 -.204E+01   0.752E+01 -.875E+00 0.125E+00   -.529E-05 0.159E-05 -.250E-06
   -.229E+03 0.256E+02 -.340E+01   0.255E+03 -.286E+02 0.378E+01   -.264E+02 0.293E+01 -.381E+00   0.747E-05 0.211E-04 -.402E-05
   0.164E+02 -.111E+01 -.885E-01   -.195E+02 0.137E+01 0.783E-01   0.309E+01 -.262E+00 0.766E-02   0.226E-04 0.117E-04 -.386E-05
 -----------------------------------------------------------------------------------------------
   0.993E+01 -.112E+01 0.144E+00   0.284E-13 0.107E-13 -.488E-14   -.993E+01 0.111E+01 -.147E+00   0.217E-04 0.339E-04 -.760E-05
 
 
 POSITION                                       TOTAL-FORCE (eV/Angst)
 -----------------------------------------------------------------------------------
     14.03017     14.07173     14.97142         0.001579      0.001887      0.000426
     14.22504     15.62192     14.09911        -0.002802     -0.000562      0.002878
     14.19167     15.59975     15.88822         0.004267     -0.000266     -0.002060
     14.52186     15.05457     14.99258         0.001621     -0.000244     -0.000280
     17.10238     14.76105     15.03286        -0.002183     -0.001047      0.001120
     15.92921     14.89175     15.01575        -0.002482      0.000232     -0.002084
 -----------------------------------------------------------------------------------
    total drift:                               -0.002934     -0.008148     -0.002804


--------------------------------------------------------------------------------------------------------



  FREE ENERGIE OF THE ION-ELECTRON SYSTEM (eV)
  ---------------------------------------------------
  free  energy   TOTEN  =       -35.64334624 eV

  energy  without entropy=      -35.64334624  energy(sigma->0) =      -35.64334624
 
 d Force = 0.2900542E-06[ 0.278E-06, 0.302E-06]  d Energy = 0.4089411E-06-0.119E-06
 d Force =-0.6405240E-02[-0.641E-02,-0.641E-02]  d Ewald  =-0.6405240E-02-0.158E-10


--------------------------------------------------------------------------------------------------------


    POTLOK:  cpu time   22.5786: real time   22.5602


--------------------------------------------------------------------------------------------------------


 NEB: the previous image is higher in energy: F
 NEB: the next image is higher in energy    : F
 NEB: image is at an extrema
 NEB: diff energy (min, max):     0.000081   35.643346

 NEB: Tangent
 ----------------------------------------------
     -0.18568      0.11242     -0.49369
      0.13612      0.58784      0.16203
      0.07992     -0.22243      0.26354
      0.00510      0.08795     -0.01214
     -0.02358     -0.38703      0.05511
     -0.01134     -0.17735      0.02503

 NEB: forces: par spring, perp REAL, dneb     0.014774    0.008099    0.000000
 NEB: distance to prev, next image, angle between     0.599021    0.601975  104.429785
 NEB: projections on to tangent (spring, REAL)     0.014774   -0.000236

 stress matrix after NEB project (eV)
     -0.84823     -0.01666      0.00788
     -0.01666     -1.00922     -0.00232
      0.00788     -0.00232     -1.00287
  FORCES: max atom, RMS     0.009850    0.006878
  FORCE total and by dimension    0.016848    0.008261
  Stress total and by dimension    1.656635    1.009217
 OPT: skip step - force has converged


--------------------------------------------------------------------------------------------------------


  
 reached required accuracy - stopping structural energy minimisation
     LOOP+:  cpu time  681.0535: real time  680.5332
    4ORBIT:  cpu time    0.0000: real time    0.0000

 total amount of memory used by VASP on root node  3203887. kBytes
========================================================================

   base      :      30000. kBytes
   nonlr-proj:        691. kBytes
   fftplans  :     924480. kBytes
   grid      :    1872000. kBytes
   one-center:         18. kBytes
   wavefun   :     376698. kBytes
 
  
  
 General timing and accounting informations for this job:
 ========================================================
  
                  Total CPU time used (sec):    97157.430
                            User time (sec):    95669.469
                          System time (sec):     1487.962
                         Elapsed time (sec):    97129.278
  
                   Maximum memory used (kb):     4751824.
                   Average memory used (kb):           0.
  
                          Minor page faults:    114905731
                          Major page faults:            8
                 Voluntary context switches:        15903
