unknown system                          
           1
    30.000000    0.000000    0.000000
     0.000000   30.000000    0.000000
     0.000000    0.000000   30.000000
   H    C    N 
   3   2   1
Direct configuration=     1
   0.46704479  0.46975095  0.49899779
   0.47473358  0.52140637  0.47014242
   0.47332603  0.52047080  0.52969071
   0.48414163  0.50214276  0.49987428
   0.56990257  0.49054334  0.50052447
   0.53086379  0.49571476  0.50076741
Direct configuration=     2
   0.46700654  0.46982909  0.49910685
   0.47473384  0.52138571  0.47015222
   0.47343294  0.52056619  0.52968947
   0.48410272  0.50218611  0.49988753
   0.56986803  0.49040371  0.50045990
   0.53086837  0.49565822  0.50070110
Direct configuration=     3
   0.46694151  0.46992901  0.49926269
   0.47472628  0.52136596  0.47015241
   0.47358055  0.52071024  0.52969758
   0.48408282  0.50224116  0.49991095
   0.56981385  0.49020400  0.50036736
   0.53086753  0.49557876  0.50060603
Direct configuration=     4
   0.46684857  0.47003691  0.49945419
   0.47470706  0.52135302  0.47013713
   0.47375643  0.52089641  0.52971939
   0.48410600  0.50230124  0.49994359
   0.56979368  0.48995109  0.50025313
   0.53080090  0.49549057  0.50048955
Direct configuration=     5
   0.46673265  0.47014614  0.49966645
   0.47467514  0.52134703  0.47011069
   0.47394749  0.52111044  0.52975183
   0.48413945  0.50236579  0.49997967
   0.56970601  0.48967836  0.50012788
   0.53081201  0.49538161  0.50036039
Direct configuration=     6
   0.46660728  0.47025916  0.49988532
   0.47463526  0.52134191  0.47008715
   0.47414796  0.52133285  0.52978384
   0.48416583  0.50243248  0.50001133
   0.56969294  0.48938444  0.50000148
   0.53076360  0.49527867  0.50022774
Direct configuration=     7
   0.46660680  0.47026071  0.49988556
   0.47463423  0.52134143  0.47008879
   0.47414925  0.52133262  0.52978246
   0.48415954  0.50243319  0.50001061
   0.56968691  0.48938482  0.50000215
   0.53077614  0.49527673  0.50022729
Direct configuration=     8
   0.46660569  0.47026380  0.49988616
   0.47463207  0.52134059  0.47009199
   0.47415200  0.52133235  0.52977977
   0.48414840  0.50243444  0.50000922
   0.56968000  0.48938460  0.50000342
   0.53079472  0.49527373  0.50022630
Direct configuration=     9
   0.46660551  0.47026408  0.49988627
   0.47463179  0.52134056  0.47009225
   0.47415234  0.52133240  0.52977953
   0.48414791  0.50243449  0.50000911
   0.56968131  0.48938419  0.50000353
   0.53079401  0.49527379  0.50022617
Direct configuration=    10
   0.46660514  0.47026466  0.49988649
   0.47463124  0.52134050  0.47009277
   0.47415303  0.52133253  0.52977905
   0.48414695  0.50243459  0.50000889
   0.56968377  0.48938336  0.50000376
   0.53079275  0.49527387  0.50022589
Direct configuration=    11
   0.46660454  0.47026553  0.49988685
   0.47463039  0.52134042  0.47009355
   0.47415409  0.52133275  0.52977834
   0.48414549  0.50243476  0.50000857
   0.56968712  0.48938212  0.50000409
   0.53079123  0.49527393  0.50022546
Direct configuration=    12
   0.46660368  0.47026673  0.49988740
   0.47462920  0.52134033  0.47009456
   0.47415557  0.52133311  0.52977740
   0.48414356  0.50243500  0.50000816
   0.56969097  0.48938048  0.50000449
   0.53078990  0.49527385  0.50022484
Direct configuration=    13
   0.46660249  0.47026825  0.49988819
   0.47462765  0.52134025  0.47009579
   0.47415747  0.52133369  0.52977625
   0.48414121  0.50243533  0.50000767
   0.56969481  0.48937846  0.50000495
   0.53078925  0.49527354  0.50022401
Direct configuration=    14
   0.46660098  0.47027005  0.49988926
   0.47462574  0.52134018  0.47009716
   0.47415978  0.52133453  0.52977495
   0.48413859  0.50243573  0.50000715
   0.56969815  0.48937610  0.50000538
   0.53078963  0.49527292  0.50022297
Direct configuration=    15
   0.46659890  0.47027236  0.49989082
   0.47462325  0.52134016  0.47009877
   0.47416281  0.52133584  0.52977338
   0.48413560  0.50243627  0.50000657
   0.56970094  0.48937308  0.50000577
   0.53079137  0.49527181  0.50022155
Direct configuration=    16
   0.46659607  0.47027527  0.49989310
   0.47462004  0.52134021  0.47010060
   0.47416678  0.52133786  0.52977156
   0.48413246  0.50243697  0.50000597
   0.56970286  0.48936915  0.50000600
   0.53079466  0.49527005  0.50021964
Direct configuration=    17
   0.46659225  0.47027897  0.49989644
   0.47461594  0.52134038  0.47010260
   0.47417202  0.52134095  0.52976948
   0.48412955  0.50243789  0.50000541
   0.56970383  0.48936384  0.50000588
   0.53079929  0.49526749  0.50021705
Direct configuration=    18
   0.46658710  0.47028371  0.49990137
   0.47461072  0.52134071  0.47010472
   0.47417900  0.52134564  0.52976718
   0.48412748  0.50243908  0.50000497
   0.56970422  0.48935642  0.50000511
   0.53080436  0.49526396  0.50021351
Direct configuration=    19
   0.46658028  0.47028979  0.49990850
   0.47460420  0.52134124  0.47010689
   0.47418830  0.52135257  0.52976472
   0.48412701  0.50244062  0.50000477
   0.56970474  0.48934596  0.50000325
   0.53080836  0.49525935  0.50020873
Direct configuration=    20
   0.46657140  0.47029761  0.49991866
   0.47459616  0.52134198  0.47010904
   0.47420066  0.52136252  0.52976214
   0.48412885  0.50244265  0.50000492
   0.56970596  0.48933134  0.49999978
   0.53080985  0.49525343  0.50020231
Direct configuration=    21
   0.46656013  0.47030744  0.49993241
   0.47458641  0.52134296  0.47011113
   0.47421667  0.52137612  0.52975957
   0.48413357  0.50244529  0.50000548
   0.56970774  0.48931182  0.49999442
   0.53080837  0.49524590  0.50019384
Direct configuration=    22
   0.46654611  0.47031965  0.49995039
   0.47457475  0.52134416  0.47011318
   0.47423710  0.52139407  0.52975715
   0.48414099  0.50244880  0.50000640
   0.56970813  0.48928682  0.49998696
   0.53080582  0.49523605  0.50018276
Direct configuration=    23
   0.46652925  0.47033466  0.49997310
   0.47456122  0.52134543  0.47011534
   0.47426265  0.52141683  0.52975494
   0.48414975  0.50245356  0.50000763
   0.56970404  0.48925618  0.49997733
   0.53080599  0.49522290  0.50016850
Direct configuration=    24
   0.46650974  0.47035305  0.50000090
   0.47454613  0.52134650  0.47011789
   0.47429424  0.52144472  0.52975297
   0.48415761  0.50246009  0.50000904
   0.56969583  0.48921917  0.49996568
   0.53080939  0.49520603  0.50015035
Direct configuration=    25
   0.46648828  0.47037525  0.50003379
   0.47453022  0.52134703  0.47012111
   0.47433276  0.52147751  0.52975124
   0.48416229  0.50246879  0.50001068
   0.56969113  0.48917457  0.49995242
   0.53080826  0.49518644  0.50012758
Direct configuration=    26
   0.46646571  0.47040076  0.50007075
   0.47451435  0.52134699  0.47012469
   0.47437827  0.52151428  0.52975007
   0.48416096  0.50247988  0.50001276
   0.56969199  0.48912318  0.49993899
   0.53080168  0.49516451  0.50009955
Direct configuration=    27
   0.46644240  0.47042639  0.50010851
   0.47449870  0.52134718  0.47012708
   0.47442748  0.52155238  0.52975069
   0.48415447  0.50249322  0.50001535
   0.56968189  0.48907175  0.49992817
   0.53080804  0.49513872  0.50006702
Direct configuration=    28
   0.46644242  0.47042601  0.50010817
   0.47449877  0.52134734  0.47012674
   0.47442746  0.52155222  0.52975106
   0.48415504  0.50249309  0.50001534
   0.56968305  0.48907193  0.49992877
   0.53080623  0.49513904  0.50006674
Direct configuration=    29
   0.46644246  0.47042530  0.50010750
   0.47449892  0.52134767  0.47012608
   0.47442743  0.52155190  0.52975181
   0.48415603  0.50249285  0.50001531
   0.56968477  0.48907236  0.49992997
   0.53080335  0.49513954  0.50006614
Direct configuration=    30
   0.46644252  0.47042428  0.50010651
   0.47449915  0.52134816  0.47012511
   0.47442745  0.52155143  0.52975293
   0.48415717  0.50249257  0.50001525
   0.56968589  0.48907320  0.49993183
   0.53080080  0.49513998  0.50006518
Direct configuration=    31
   0.46644252  0.47042424  0.50010646
   0.47449916  0.52134819  0.47012506
   0.47442748  0.52155140  0.52975300
   0.48415714  0.50249257  0.50001524
   0.56968564  0.48907329  0.49993195
   0.53080103  0.49513994  0.50006511
Direct configuration=    32
   0.46644252  0.47042418  0.50010639
   0.47449919  0.52134823  0.47012496
   0.47442755  0.52155137  0.52975312
   0.48415711  0.50249259  0.50001522
   0.56968515  0.48907342  0.49993217
   0.53080145  0.49513984  0.50006495
Direct configuration=    33
   0.46644249  0.47042412  0.50010634
   0.47449923  0.52134829  0.47012482
   0.47442772  0.52155138  0.52975331
   0.48415707  0.50249262  0.50001521
   0.56968446  0.48907354  0.49993246
   0.53080201  0.49513967  0.50006468
Direct configuration=    34
   0.46644243  0.47042411  0.50010637
   0.47449926  0.52134837  0.47012464
   0.47442803  0.52155148  0.52975354
   0.48415703  0.50249269  0.50001521
   0.56968363  0.48907356  0.49993276
   0.53080259  0.49513941  0.50006429
Direct configuration=    35
   0.46644230  0.47042419  0.50010654
   0.47449930  0.52134844  0.47012443
   0.47442853  0.52155171  0.52975381
   0.48415702  0.50249281  0.50001522
   0.56968274  0.48907340  0.49993303
   0.53080308  0.49513907  0.50006378
Direct configuration=    36
   0.46644210  0.47042439  0.50010691
   0.47449932  0.52134851  0.47012419
   0.47442925  0.52155212  0.52975410
   0.48415705  0.50249299  0.50001527
   0.56968188  0.48907299  0.49993321
   0.53080338  0.49513863  0.50006312
Direct configuration=    37
   0.46644178  0.47042480  0.50010759
   0.47449932  0.52134857  0.47012393
   0.47443035  0.52155281  0.52975443
   0.48415711  0.50249326  0.50001537
   0.56968100  0.48907218  0.49993326
   0.53080341  0.49513801  0.50006224
Direct configuration=    38
   0.46644132  0.47042545  0.50010867
   0.47449929  0.52134861  0.47012362
   0.47443192  0.52155385  0.52975481
   0.48415724  0.50249366  0.50001552
   0.56968019  0.48907085  0.49993313
   0.53080302  0.49513720  0.50006107
Direct configuration=    39
   0.46644066  0.47042640  0.50011021
   0.47449923  0.52134864  0.47012327
   0.47443405  0.52155531  0.52975525
   0.48415743  0.50249421  0.50001572
   0.56967950  0.48906890  0.49993281
   0.53080210  0.49513616  0.50005955
Direct configuration=    40
   0.46643978  0.47042772  0.50011233
   0.47449913  0.52134865  0.47012287
   0.47443688  0.52155729  0.52975575
   0.48415766  0.50249495  0.50001599
   0.56967892  0.48906620  0.49993227
   0.53080061  0.49513481  0.50005761
Direct configuration=    41
   0.46643861  0.47042950  0.50011514
   0.47449897  0.52134862  0.47012243
   0.47444056  0.52155989  0.52975633
   0.48415788  0.50249593  0.50001631
   0.56967828  0.48906261  0.49993146
   0.53079867  0.49513307  0.50005514
Direct configuration=    42
   0.46643708  0.47043180  0.50011875
   0.47449874  0.52134857  0.47012195
   0.47444526  0.52156323  0.52975701
   0.48415798  0.50249722  0.50001668
   0.56967722  0.48905804  0.49993037
   0.53079671  0.49513077  0.50005205
Direct configuration=    43
   0.46643509  0.47043469  0.50012326
   0.47449840  0.52134849  0.47012141
   0.47445111  0.52156740  0.52975781
   0.48415783  0.50249886  0.50001706
   0.56967530  0.48905243  0.49992901
   0.53079525  0.49512775  0.50004824
Direct configuration=    44
   0.46643255  0.47043821  0.50012873
   0.47449791  0.52134842  0.47012082
   0.47445827  0.52157248  0.52975875
   0.48415735  0.50250090  0.50001744
   0.56967237  0.48904571  0.49992744
   0.53079454  0.49512392  0.50004361
Direct configuration=    45
   0.46642928  0.47044241  0.50013525
   0.47449719  0.52134839  0.47012014
   0.47446694  0.52157860  0.52975987
   0.48415661  0.50250335  0.50001778
   0.56966906  0.48903762  0.49992577
   0.53079392  0.49511926  0.50003799
Direct configuration=    46
   0.46642514  0.47044719  0.50014266
   0.47449616  0.52134852  0.47011930
   0.47447714  0.52158571  0.52976120
   0.48415588  0.50250610  0.50001805
   0.56966681  0.48902808  0.49992424
   0.53079187  0.49511403  0.50003135
Direct configuration=    47
   0.46641985  0.47045240  0.50015068
   0.47449462  0.52134901  0.47011819
   0.47448884  0.52159365  0.52976274
   0.48415533  0.50250897  0.50001820
   0.56966587  0.48901733  0.49992338
   0.53078850  0.49510828  0.50002362
Direct configuration=    48
   0.46641345  0.47045767  0.50015851
   0.47449244  0.52135001  0.47011683
   0.47450137  0.52160177  0.52976436
   0.48415466  0.50251170  0.50001814
   0.56966319  0.48900677  0.49992384
   0.53078789  0.49510172  0.50001511
Direct configuration=    49
   0.46641337  0.47045765  0.50015841
   0.47449238  0.52135007  0.47011682
   0.47450138  0.52160171  0.52976435
   0.48415470  0.50251165  0.50001811
   0.56966320  0.48900687  0.49992403
   0.53078797  0.49510170  0.50001508
Direct configuration=    50
   0.46641320  0.47045760  0.50015820
   0.47449227  0.52135017  0.47011682
   0.47450140  0.52160159  0.52976432
   0.48415476  0.50251156  0.50001803
   0.56966324  0.48900705  0.49992441
   0.53078813  0.49510168  0.50001502
Direct configuration=    51
   0.46641296  0.47045755  0.50015791
   0.47449209  0.52135032  0.47011681
   0.47450144  0.52160142  0.52976427
   0.48415485  0.50251142  0.50001792
   0.56966332  0.48900730  0.49992497
   0.53078834  0.49510164  0.50001492
Direct configuration=    52
   0.46641262  0.47045751  0.50015757
   0.47449186  0.52135051  0.47011681
   0.47450155  0.52160123  0.52976420
   0.48415498  0.50251126  0.50001777
   0.56966345  0.48900756  0.49992568
   0.53078854  0.49510157  0.50001477
Direct configuration=    53
   0.46641216  0.47045754  0.50015724
   0.47449156  0.52135074  0.47011683
   0.47450179  0.52160107  0.52976410
   0.48415514  0.50251109  0.50001760
   0.56966364  0.48900777  0.49992649
   0.53078872  0.49510143  0.50001454
Direct configuration=    54
   0.46641160  0.47045767  0.50015699
   0.47449120  0.52135099  0.47011687
   0.47450219  0.52160100  0.52976397
   0.48415532  0.50251094  0.50001741
   0.56966387  0.48900784  0.49992733
   0.53078884  0.49510121  0.50001422
Direct configuration=    55
   0.46641085  0.47045794  0.50015681
   0.47449074  0.52135127  0.47011695
   0.47450281  0.52160101  0.52976378
   0.48415553  0.50251079  0.50001717
   0.56966415  0.48900778  0.49992831
   0.53078893  0.49510086  0.50001377
Direct configuration=    56
   0.46640990  0.47045835  0.50015668
   0.47449017  0.52135161  0.47011707
   0.47450371  0.52160110  0.52976354
   0.48415575  0.50251065  0.50001688
   0.56966447  0.48900758  0.49992946
   0.53078901  0.49510035  0.50001317
Direct configuration=    57
   0.46640871  0.47045894  0.50015660
   0.47448949  0.52135200  0.47011725
   0.47450492  0.52160128  0.52976322
   0.48415596  0.50251054  0.50001649
   0.56966478  0.48900723  0.49993085
   0.53078914  0.49509965  0.50001238
Direct configuration=    58
   0.46640727  0.47045974  0.50015656
   0.47448868  0.52135246  0.47011750
   0.47450651  0.52160154  0.52976283
   0.48415613  0.50251046  0.50001600
   0.56966504  0.48900674  0.49993253
   0.53078937  0.49509870  0.50001137
Direct configuration=    59
   0.46640553  0.47046075  0.50015653
   0.47448774  0.52135300  0.47011782
   0.47450852  0.52160188  0.52976238
   0.48415626  0.50251041  0.50001537
   0.56966528  0.48900612  0.49993463
   0.53078966  0.49509748  0.50001008
Direct configuration=    60
   0.46640349  0.47046195  0.50015639
   0.47448669  0.52135369  0.47011816
   0.47451098  0.52160223  0.52976188
   0.48415638  0.50251037  0.50001458
   0.56966563  0.48900543  0.49993730
   0.53078983  0.49509597  0.50000849
Direct configuration=    61
   0.46640119  0.47046324  0.50015595
   0.47448556  0.52135460  0.47011846
   0.47451380  0.52160246  0.52976140
   0.48415652  0.50251028  0.50001362
   0.56966612  0.48900484  0.49994078
   0.53078982  0.49509421  0.50000660
Direct configuration=    62
   0.46639873  0.47046444  0.50015492
   0.47448443  0.52135578  0.47011862
   0.47451677  0.52160237  0.52976101
   0.48415666  0.50251010  0.50001247
   0.56966655  0.48900470  0.49994532
   0.53078985  0.49509226  0.50000446
Direct configuration=    63
   0.46639631  0.47046527  0.50015292
   0.47448341  0.52135730  0.47011859
   0.47451955  0.52160161  0.52976078
   0.48415679  0.50250972  0.50001110
   0.56966694  0.48900544  0.49995116
   0.53079000  0.49509030  0.50000226
Direct configuration=    64
   0.46639419  0.47046544  0.50014933
   0.47448267  0.52135921  0.47011835
   0.47452159  0.52159971  0.52976075
   0.48415684  0.50250905  0.50000936
   0.56966772  0.48900754  0.49995881
   0.53078999  0.49508868  0.50000020
Direct configuration=    65
   0.46639282  0.47046440  0.50014319
   0.47448241  0.52136159  0.47011790
   0.47452209  0.52159579  0.52976097
   0.48415665  0.50250791  0.50000707
   0.56966896  0.48901209  0.49996898
   0.53079007  0.49508786  0.49999870
Direct configuration=    66
   0.46639295  0.47046125  0.50013278
   0.47448297  0.52136457  0.47011729
   0.47451961  0.52158831  0.52976147
   0.48415600  0.50250588  0.50000394
   0.56967074  0.48902100  0.49998289
   0.53079073  0.49508863  0.49999842
Direct configuration=    67
   0.46639587  0.47045441  0.50011515
   0.47448480  0.52136843  0.47011653
   0.47451166  0.52157454  0.52976227
   0.48415486  0.50250217  0.49999959
   0.56967412  0.48903749  0.50000268
   0.53079167  0.49509258  0.50000058
Direct configuration=    68
   0.46640385  0.47044104  0.50008520
   0.47448855  0.52137367  0.47011566
   0.47449387  0.52154978  0.52976345
   0.48415310  0.50249538  0.49999333
   0.56967968  0.48906745  0.50003196
   0.53079391  0.49510231  0.50000722
Direct configuration=    69
   0.46642085  0.47041625  0.50003436
   0.47449515  0.52138099  0.47011488
   0.47445894  0.52150592  0.52976513
   0.48415071  0.50248307  0.49998383
   0.56968926  0.48912101  0.50007694
   0.53079804  0.49512236  0.50002169
Direct configuration=    70
   0.46645385  0.47037204  0.49994875
   0.47450586  0.52139152  0.47011481
   0.47439497  0.52142965  0.52976762
   0.48414633  0.50246076  0.49996867
   0.56970651  0.48921515  0.50014755
   0.53080538  0.49516043  0.50004945
Direct configuration=    71
   0.46651422  0.47029482  0.49980695
   0.47452186  0.52140669  0.47011668
   0.47428351  0.52129923  0.52977091
   0.48413872  0.50242264  0.49994512
   0.56973360  0.48937815  0.50025867
   0.53082092  0.49522793  0.50009855
Direct configuration=    72
   0.46662035  0.47016466  0.49957892
   0.47454326  0.52142790  0.47012319
   0.47409810  0.52108210  0.52977586
   0.48413178  0.50236039  0.49990869
   0.56979135  0.48964929  0.50043047
   0.53082786  0.49534499  0.50017981
Direct configuration=    73
   0.46679776  0.46996355  0.49923334
   0.47456619  0.52145569  0.47013877
   0.47380968  0.52073925  0.52978395
   0.48410030  0.50226059  0.49985216
   0.56974714  0.49010131  0.50068263
   0.53099143  0.49550869  0.50030619
Direct configuration=    74
   0.46681763  0.46995753  0.49926268
   0.47455941  0.52141875  0.47012938
   0.47380932  0.52074655  0.52976409
   0.48414139  0.50224839  0.49985347
   0.56999601  0.49009488  0.50068354
   0.53068869  0.49556290  0.50030388
Direct configuration=    75
   0.46682273  0.46995413  0.49927504
   0.47455403  0.52140339  0.47012505
   0.47380587  0.52075092  0.52975675
   0.48412586  0.50224813  0.49985340
   0.56990666  0.49011936  0.50068185
   0.53079729  0.49555302  0.50030494
Direct configuration=    76
   0.46683464  0.46994630  0.49930197
   0.47454319  0.52136985  0.47011540
   0.47379920  0.52076045  0.52974096
   0.48410474  0.50224566  0.49985337
   0.56978191  0.49016316  0.50067894
   0.53094873  0.49554346  0.50030642
Direct configuration=    77
   0.46683628  0.46994520  0.49930513
   0.47454218  0.52136593  0.47011415
   0.47379870  0.52076160  0.52973921
   0.48410657  0.50224472  0.49985341
   0.56979235  0.49016485  0.50067885
   0.53093632  0.49554656  0.50030631
Direct configuration=    78
   0.46683953  0.46994301  0.49931140
   0.47454017  0.52135817  0.47011165
   0.47379769  0.52076390  0.52973576
   0.48410996  0.50224288  0.49985347
   0.56981152  0.49016841  0.50067865
   0.53091353  0.49555248  0.50030612
Direct configuration=    79
   0.46684437  0.46993968  0.49932087
   0.47453707  0.52134647  0.47010785
   0.47379613  0.52076739  0.52973056
   0.48411439  0.50224018  0.49985357
   0.56983628  0.49017437  0.50067832
   0.53088414  0.49556071  0.50030589
Direct configuration=    80
   0.46685089  0.46993346  0.49932590
   0.47453387  0.52133616  0.47010436
   0.47379151  0.52076672  0.52972646
   0.48411886  0.50223640  0.49985311
   0.56986282  0.49018496  0.50068039
   0.53085441  0.49557107  0.50030684
Direct configuration=    81
   0.46685121  0.46993297  0.49932537
   0.47453379  0.52133619  0.47010435
   0.47379102  0.52076615  0.52972655
   0.48411877  0.50223622  0.49985303
   0.56986251  0.49018589  0.50068074
   0.53085507  0.49557135  0.50030703
Direct configuration=    82
   0.46685185  0.46993199  0.49932431
   0.47453364  0.52133626  0.47010432
   0.47379002  0.52076499  0.52972673
   0.48411858  0.50223586  0.49985286
   0.56986191  0.49018774  0.50068144
   0.53085637  0.49557193  0.50030740
Direct configuration=    83
   0.46685280  0.46993052  0.49932271
   0.47453342  0.52133636  0.47010429
   0.47378853  0.52076326  0.52972700
   0.48411831  0.50223531  0.49985261
   0.56986105  0.49019050  0.50068250
   0.53085825  0.49557281  0.50030796
Direct configuration=    84
   0.46685409  0.46992857  0.49932059
   0.47453312  0.52133649  0.47010425
   0.47378654  0.52076094  0.52972735
   0.48411797  0.50223458  0.49985227
   0.56986001  0.49019419  0.50068390
   0.53086063  0.49557401  0.50030871
Direct configuration=    85
   0.46685570  0.46992611  0.49931792
   0.47453275  0.52133665  0.47010420
   0.47378405  0.52075803  0.52972779
   0.48411756  0.50223365  0.49985185
   0.56985887  0.49019878  0.50068566
   0.53086343  0.49557553  0.50030965
Direct configuration=    86
   0.46685766  0.46992317  0.49931471
   0.47453230  0.52133684  0.47010414
   0.47378105  0.52075452  0.52972831
   0.48411711  0.50223252  0.49985135
   0.56985774  0.49020429  0.50068779
   0.53086650  0.49557741  0.50031077
Direct configuration=    87
   0.46686023  0.46991932  0.49931051
   0.47453172  0.52133708  0.47010408
   0.47377714  0.52074992  0.52972900
   0.48411657  0.50223104  0.49985069
   0.56985664  0.49021146  0.50069056
   0.53087004  0.49557994  0.50031223
Direct configuration=    88
   0.46686359  0.46991435  0.49930509
   0.47453097  0.52133737  0.47010403
   0.47377208  0.52074395  0.52972987
   0.48411597  0.50222910  0.49984985
   0.56985581  0.49022066  0.50069414
   0.53087393  0.49558332  0.50031410
Direct configuration=    89
   0.46686794  0.46990801  0.49929814
   0.47453001  0.52133771  0.47010399
   0.47376562  0.52073628  0.52973097
   0.48411530  0.50222658  0.49984878
   0.56985556  0.49023237  0.50069872
   0.53087791  0.49558780  0.50031648
Direct configuration=    90
   0.46687353  0.46989996  0.49928933
   0.47452879  0.52133810  0.47010399
   0.47375742  0.52072646  0.52973234
   0.48411461  0.50222333  0.49984743
   0.56985635  0.49024716  0.50070452
   0.53088163  0.49559371  0.50031948
Direct configuration=    91
   0.46688071  0.46988982  0.49927820
   0.47452722  0.52133853  0.47010407
   0.47374708  0.52071398  0.52973404
   0.48411391  0.50221915  0.49984574
   0.56985871  0.49026577  0.50071181
   0.53088470  0.49560146  0.50032321
Direct configuration=    92
   0.46688990  0.46987710  0.49926423
   0.47452522  0.52133896  0.47010430
   0.47373407  0.52069815  0.52973613
   0.48411320  0.50221382  0.49984365
   0.56986317  0.49028914  0.50072093
   0.53088674  0.49561153  0.50032785
Direct configuration=    93
   0.46690167  0.46986117  0.49924674
   0.47452262  0.52133933  0.47010479
   0.47371775  0.52067807  0.52973868
   0.48411244  0.50220701  0.49984106
   0.56987018  0.49031856  0.50073227
   0.53088762  0.49562452  0.50033357
Direct configuration=    94
   0.46691675  0.46984123  0.49922488
   0.47451922  0.52133956  0.47010568
   0.47369729  0.52065260  0.52974177
   0.48411149  0.50219832  0.49983790
   0.56987985  0.49035577  0.50074628
   0.53088766  0.49564115  0.50034060
Direct configuration=    95
   0.46693613  0.46981631  0.49919762
   0.47451471  0.52133951  0.47010721
   0.47367166  0.52062028  0.52974554
   0.48411005  0.50218722  0.49983403
   0.56989180  0.49040303  0.50076349
   0.53088789  0.49566224  0.50034924
Direct configuration=    96
   0.46696096  0.46978524  0.49916380
   0.47450865  0.52133897  0.47010969
   0.47363962  0.52057931  0.52975009
   0.48410774  0.50217304  0.49982933
   0.56990508  0.49046325  0.50078445
   0.53089013  0.49568873  0.50035978
Direct configuration=    97
   0.46699270  0.46974665  0.49912209
   0.47450050  0.52133764  0.47011357
   0.47359981  0.52052754  0.52975559
   0.48410417  0.50215500  0.49982360
   0.56991859  0.49053987  0.50080974
   0.53089636  0.49572177  0.50037257
Direct configuration=    98
   0.46703273  0.46969948  0.49907111
   0.47448995  0.52133525  0.47011927
   0.47355098  0.52046285  0.52976197
   0.48409916  0.50213246  0.49981670
   0.56993162  0.49063594  0.50084006
   0.53090762  0.49576241  0.50038808
Direct configuration=    99
   0.46708272  0.46964269  0.49900935
   0.47447666  0.52133144  0.47012736
   0.47349194  0.52038281  0.52976907
   0.48409298  0.50210469  0.49980854
   0.56994547  0.49075451  0.50087614
   0.53092223  0.49581213  0.50040676
Direct configuration=   100
   0.46714429  0.46957547  0.49893541
   0.47446035  0.52132573  0.47013838
   0.47342177  0.52028497  0.52977652
   0.48408665  0.50207094  0.49979906
   0.56996404  0.49089840  0.50091888
   0.53093478  0.49587262  0.50042900
Direct configuration=   101
   0.46721899  0.46949743  0.49884820
   0.47444072  0.52131763  0.47015305
   0.47333991  0.52016711  0.52978393
   0.48408147  0.50203070  0.49978796
   0.56999044  0.49106977  0.50096890
   0.53094023  0.49594533  0.50045527
Direct configuration=   102
   0.46730837  0.46940845  0.49874673
   0.47441733  0.52130647  0.47017203
   0.47324631  0.52002687  0.52979075
   0.48407776  0.50198395  0.49977486
   0.57001837  0.49127173  0.50102678
   0.53094348  0.49603031  0.50048623
Direct configuration=   103
   0.46741029  0.46931931  0.49866580
   0.47438720  0.52126822  0.47018647
   0.47315393  0.51989034  0.52978277
   0.48407575  0.50193410  0.49976151
   0.57002813  0.49149455  0.50108280
   0.53095616  0.49612102  0.50051807
Direct configuration=   104
   0.46752342  0.46922958  0.49860221
   0.47435000  0.52120849  0.47019443
   0.47306653  0.51975661  0.52976502
   0.48408049  0.50188215  0.49974703
   0.57004256  0.49173008  0.50113739
   0.53094826  0.49622032  0.50055142
Direct configuration=   105
   0.46752319  0.46922938  0.49860184
   0.47434988  0.52120917  0.47019409
   0.47306687  0.51975660  0.52976571
   0.48408023  0.50188230  0.49974693
   0.57004186  0.49172963  0.50113744
   0.53094923  0.49622015  0.50055150
Direct configuration=   106
   0.46752275  0.46922896  0.49860111
   0.47434963  0.52121050  0.47019342
   0.47306756  0.51975656  0.52976705
   0.48407974  0.50188259  0.49974673
   0.57004070  0.49172873  0.50113754
   0.53095089  0.49621989  0.50055165
Direct configuration=   107
   0.46752213  0.46922833  0.49860008
   0.47434924  0.52121241  0.47019241
   0.47306860  0.51975650  0.52976901
   0.48407910  0.50188301  0.49974643
   0.57003951  0.49172737  0.50113770
   0.53095269  0.49621961  0.50055187
Direct configuration=   108
   0.46752139  0.46922752  0.49859883
   0.47434871  0.52121475  0.47019110
   0.47307001  0.51975643  0.52977149
   0.48407837  0.50188355  0.49974604
   0.57003884  0.49172555  0.50113792
   0.53095396  0.49621943  0.50055211
Direct configuration=   109
   0.46752063  0.46922658  0.49859754
   0.47434804  0.52121726  0.47018954
   0.47307173  0.51975639  0.52977430
   0.48407761  0.50188419  0.49974558
   0.57003898  0.49172338  0.50113818
   0.53095429  0.49621944  0.50055236
Direct configuration=   110
   0.46751996  0.46922555  0.49859639
   0.47434719  0.52121967  0.47018778
   0.47307373  0.51975641  0.52977724
   0.48407683  0.50188490  0.49974507
   0.57003990  0.49172102  0.50113846
   0.53095366  0.49621970  0.50055256
Direct configuration=   111
   0.46751947  0.46922432  0.49859563
   0.47434597  0.52122176  0.47018558
   0.47307626  0.51975660  0.52978036
   0.48407585  0.50188574  0.49974447
   0.57004141  0.49171848  0.50113876
   0.53095230  0.49622034  0.50055270
Direct configuration=   112
   0.46751953  0.46922430  0.49859575
   0.47434590  0.52122163  0.47018551
   0.47307633  0.51975664  0.52978034
   0.48407581  0.50188576  0.49974446
   0.57004137  0.49171852  0.50113876
   0.53095234  0.49622040  0.50055268
Direct configuration=   113
   0.46751967  0.46922423  0.49859606
   0.47434575  0.52122128  0.47018536
   0.47307645  0.51975677  0.52978025
   0.48407573  0.50188577  0.49974444
   0.57004129  0.49171865  0.50113874
   0.53095240  0.49622055  0.50055265
Direct configuration=   114
   0.46751992  0.46922410  0.49859665
   0.47434548  0.52122061  0.47018509
   0.47307659  0.51975702  0.52978005
   0.48407560  0.50188576  0.49974442
   0.57004120  0.49171895  0.50113870
   0.53095249  0.49622081  0.50055259
Direct configuration=   115
   0.46752033  0.46922388  0.49859764
   0.47434507  0.52121948  0.47018467
   0.47307675  0.51975744  0.52977968
   0.48407545  0.50188570  0.49974440
   0.57004110  0.49171951  0.50113862
   0.53095259  0.49622124  0.50055249
Direct configuration=   116
   0.46752094  0.46922354  0.49859916
   0.47434448  0.52121774  0.47018405
   0.47307689  0.51975809  0.52977906
   0.48407526  0.50188558  0.49974438
   0.57004101  0.49172042  0.50113848
   0.53095270  0.49622187  0.50055236
Direct configuration=   117
   0.46752181  0.46922303  0.49860133
   0.47434367  0.52121523  0.47018318