 vasp.5.4.1 05Feb16 (build Mar 08 2016 13:24:48) complex                        
  
 executed on             LinuxIFC date 2020.01.10  23:19:33
 running on    2 total cores
 distrk:  each k-point on    2 cores,    1 groups
 distr:  one band on NCORES_PER_BAND=   1 cores,    2 groups


--------------------------------------------------------------------------------------------------------


 INCAR:
 POTCAR:    PAW_PBE H 15Jun2001                   
 POTCAR:    PAW_PBE C 08Apr2002                   
 POTCAR:    PAW_PBE N 08Apr2002                   
 POTCAR:    PAW_PBE H 15Jun2001                   
   VRHFIN =H: ultrasoft test                                                    
   LEXCH  = PE                                                                  
   EATOM  =    12.4884 eV,    0.9179 Ry                                         
                                                                                
   TITEL  = PAW_PBE H 15Jun2001                                                 
   LULTRA =        F    use ultrasoft PP ?                                      
   IUNSCR =        0    unscreen: 0-lin 1-nonlin 2-no                           
   RPACOR =    0.000    partial core radius                                     
   POMASS =    1.000; ZVAL   =    1.000    mass and valenz                      
   RCORE  =    1.100    outmost cutoff radius                                   
   RWIGS  =    0.700; RWIGS  =    0.370    wigner-seitz radius (au A)           
   ENMAX  =  250.000; ENMIN  =  200.000 eV                                      
   RCLOC  =    0.701    cutoff for local pot                                    
   LCOR   =        T    correct aug charges                                     
   LPAW   =        T    paw PP                                                  
   EAUG   =  400.000                                                            
   RMAX   =    1.123    core radius for proj-oper                               
   RAUG   =    1.200    factor for augmentation sphere                          
   RDEP   =    1.112    radius for radial grids                                 
   RDEPT  =    0.926    core radius for aug-charge                              
                                                                                
   Atomic configuration                                                         
    2 entries                                                                   
     n  l   j            E        occ.                                          
     1  0  0.50        -6.4927   1.0000                                         
     2  1  0.50        -3.4015   0.0000                                         
   Description                                                                  
     l       E           TYP  RCUT    TYP  RCUT                                 
     0     -6.4927494     23  1.100                                             
     0      6.8029130     23  1.100                                             
     1     -4.0817478     23  1.100                                             
  local pseudopotential read in
  atomic valenz-charges read in
  non local Contribution for L=           0  read in
    real space projection operators read in
  non local Contribution for L=           0  read in
    real space projection operators read in
  non local Contribution for L=           1  read in
    real space projection operators read in
    PAW grid and wavefunctions read in
 
   number of l-projection  operators is LMAX  =           3
   number of lm-projection operators is LMMAX =           5
 
 POTCAR:    PAW_PBE C 08Apr2002                   
   VRHFIN =C: s2p2                                                              
   LEXCH  = PE                                                                  
   EATOM  =   147.1560 eV,   10.8157 Ry                                         
                                                                                
   TITEL  = PAW_PBE C 08Apr2002                                                 
   LULTRA =        F    use ultrasoft PP ?                                      
   IUNSCR =        1    unscreen: 0-lin 1-nonlin 2-no                           
   RPACOR =    1.200    partial core radius                                     
   POMASS =   12.011; ZVAL   =    4.000    mass and valenz                      
   RCORE  =    1.500    outmost cutoff radius                                   
   RWIGS  =    1.630; RWIGS  =    0.863    wigner-seitz radius (au A)           
   ENMAX  =  400.000; ENMIN  =  300.000 eV                                      
   ICORE  =        2    local potential                                         
   LCOR   =        T    correct aug charges                                     
   LPAW   =        T    paw PP                                                  
   EAUG   =  644.873                                                            
   DEXC   =    0.000                                                            
   RMAX   =    1.529    core radius for proj-oper                               
   RAUG   =    1.300    factor for augmentation sphere                          
   RDEP   =    1.501    radius for radial grids                                 
   RDEPT  =    1.300    core radius for aug-charge                              
                                                                                
   Atomic configuration                                                         
    4 entries                                                                   
     n  l   j            E        occ.                                          
     1  0  0.50      -273.3789   2.0000                                         
     2  0  0.50       -13.7508   2.0000                                         
     2  1  0.50        -5.2854   2.0000                                         
     3  2  1.50        -5.4423   0.0000                                         
   Description                                                                  
     l       E           TYP  RCUT    TYP  RCUT                                 
     0    -13.7508458     23  1.200                                             
     0     -8.2022199     23  1.200                                             
     1     -5.2854383     23  1.500                                             
     1     34.0145650     23  1.500                                             
     2     -5.4423304      7  1.500                                             
  local pseudopotential read in
  partial core-charges read in
  partial kinetic energy density read in
  atomic valenz-charges read in
  non local Contribution for L=           0  read in
    real space projection operators read in
  non local Contribution for L=           0  read in
    real space projection operators read in
  non local Contribution for L=           1  read in
    real space projection operators read in
  non local Contribution for L=           1  read in
    real space projection operators read in
    PAW grid and wavefunctions read in
 
   number of l-projection  operators is LMAX  =           4
   number of lm-projection operators is LMMAX =           8
 
 POTCAR:    PAW_PBE N 08Apr2002                   
   VRHFIN =N: s2p3                                                              
   LEXCH  = PE                                                                  
   EATOM  =   264.5486 eV,   19.4438 Ry                                         
                                                                                
   TITEL  = PAW_PBE N 08Apr2002                                                 
   LULTRA =        F    use ultrasoft PP ?                                      
   IUNSCR =        1    unscreen: 0-lin 1-nonlin 2-no                           
   RPACOR =    1.200    partial core radius                                     
   POMASS =   14.001; ZVAL   =    5.000    mass and valenz                      
   RCORE  =    1.500    outmost cutoff radius                                   
   RWIGS  =    1.400; RWIGS  =    0.741    wigner-seitz radius (au A)           
   ENMAX  =  400.000; ENMIN  =  300.000 eV                                      
   ICORE  =        2    local potential                                         
   LCOR   =        T    correct aug charges                                     
   LPAW   =        T    paw PP                                                  
   EAUG   =  627.112                                                            
   DEXC   =    0.000                                                            
   RMAX   =    1.529    core radius for proj-oper                               
   RAUG   =    1.300    factor for augmentation sphere                          
   RDEP   =    1.514    radius for radial grids                                 
   RDEPT  =    1.338    core radius for aug-charge                              
                                                                                
   Atomic configuration                                                         
    4 entries                                                                   
     n  l   j            E        occ.                                          
     1  0  0.50      -384.7179   2.0000                                         
     2  0  0.50       -18.5828   2.0000                                         
     2  1  0.50        -7.0898   3.0000                                         
     3  2  1.50        -6.8029   0.0000                                         
   Description                                                                  
     l       E           TYP  RCUT    TYP  RCUT                                 
     0    -18.5828119     23  1.200                                             
     0    -13.5018863     23  1.200                                             
     1     -7.0897853     23  1.500                                             
     1      9.5240782     23  1.500                                             
     2     -6.8029130      7  1.500                                             
  local pseudopotential read in
  partial core-charges read in
  partial kinetic energy density read in
  atomic valenz-charges read in
  non local Contribution for L=           0  read in
    real space projection operators read in
  non local Contribution for L=           0  read in
    real space projection operators read in
  non local Contribution for L=           1  read in
    real space projection operators read in
  non local Contribution for L=           1  read in
    real space projection operators read in
    PAW grid and wavefunctions read in
 
   number of l-projection  operators is LMAX  =           4
   number of lm-projection operators is LMMAX =           8
 

 ----------------------------------------------------------------------------- 
|                                                                             |
|  ADVICE TO THIS USER RUNNING 'VASP/VAMP'   (HEAR YOUR MASTER'S VOICE ...):  |
|                                                                             |
|      You have a (more or less) 'small supercell' and for smaller cells      |
|      it is recommended  to use the reciprocal-space projection scheme!      |
|      The real space optimization is not  efficient for small cells and it   |
|      is also less accurate ...                                              |
|      Therefore set LREAL=.FALSE. in the  INCAR file                         |
|                                                                             |
 ----------------------------------------------------------------------------- 

 Optimization of the real space projectors (new method)

 maximal supplied QI-value         = 34.20
 optimisation between [QCUT,QGAM] = [  9.92, 20.18] = [ 27.55,114.04] Ry 
 Optimized for a Real-space Cutoff    1.26 Angstroem

   l    n(q)    QCUT    max X(q) W(low)/X(q) W(high)/X(q)  e(spline) 
   0      8     9.919    19.460    0.50E-03    0.23E-03    0.29E-06
   0      8     9.919    12.209    0.48E-03    0.23E-03    0.28E-06
   1      7     9.919     4.655    0.17E-03    0.75E-03    0.30E-06
 Optimization of the real space projectors (new method)

 maximal supplied QI-value         = 25.13
 optimisation between [QCUT,QGAM] = [ 10.05, 20.36] = [ 28.30,116.06] Ry 
 Optimized for a Real-space Cutoff    1.30 Angstroem

   l    n(q)    QCUT    max X(q) W(low)/X(q) W(high)/X(q)  e(spline) 
   0      8    10.053   115.676    0.49E-03    0.72E-03    0.18E-06
   0      8    10.053    87.132    0.49E-03    0.71E-03    0.18E-06
   1      7    10.053     4.429    0.32E-03    0.31E-03    0.18E-06
   1      7    10.053     2.733    0.23E-03    0.19E-03    0.20E-06
 Optimization of the real space projectors (new method)

 maximal supplied QI-value         = 25.13
 optimisation between [QCUT,QGAM] = [ 10.05, 20.36] = [ 28.30,116.06] Ry 
 Optimized for a Real-space Cutoff    1.65 Angstroem

   l    n(q)    QCUT    max X(q) W(low)/X(q) W(high)/X(q)  e(spline) 
   0     10    10.053    79.467    0.76E-04    0.72E-04    0.56E-06
   0     10    10.053    66.151    0.76E-04    0.72E-04    0.55E-06
   1     10    10.053     8.350    0.25E-03    0.92E-03    0.41E-05
   1     10    10.053     5.531    0.27E-03    0.10E-02    0.45E-05
  PAW_PBE H 15Jun2001                   :
 energy of atom  1       EATOM=  -12.4884
 kinetic energy error for atom=    0.0098 (will be added to EATOM!!)
  PAW_PBE C 08Apr2002                   :
 energy of atom  2       EATOM= -147.1560
 kinetic energy error for atom=    0.0288 (will be added to EATOM!!)
  PAW_PBE N 08Apr2002                   :
 energy of atom  3       EATOM= -264.5486
 kinetic energy error for atom=    0.0736 (will be added to EATOM!!)
 
 
 POSCAR: H3 C2 N1                                
  positions in direct lattice
  No initial velocities read in
 exchange correlation table for  LEXCH =        8
   RHO(1)=    0.500       N(1)  =     2000
   RHO(2)=  100.500       N(2)  =     4000
 


--------------------------------------------------------------------------------------------------------


 ion  position               nearest neighbor table
   1  0.423  0.501  0.508-   4 1.14
   2  0.423  0.545  0.464-   4 1.14
   3  0.423  0.561  0.524-   4 1.14
   4  0.435  0.536  0.498-   2 1.14   3 1.14   1 1.14   5 1.51
   5  0.486  0.536  0.498-   4 1.51   6 1.51
   6  0.536  0.535  0.498-   5 1.51
 
  LATTYP: Found a simple cubic cell.
 ALAT       =    30.0000000000
  
  Lattice vectors:
  
 A1 = (  30.0000000000,   0.0000000000,   0.0000000000)
 A2 = (   0.0000000000,  30.0000000000,   0.0000000000)
 A3 = (   0.0000000000,   0.0000000000,  30.0000000000)


Analysis of symmetry for initial positions (statically):
=====================================================================
 Subroutine PRICEL returns:
 Original cell was already a primitive cell.
 

 Routine SETGRP: Setting up the symmetry group for a 
 simple cubic supercell.


 Subroutine GETGRP returns: Found  1 space group operations
 (whereof  1 operations were pure point group operations)
 out of a pool of 48 trial point group operations.


The static configuration has the point symmetry C_1 .


Analysis of symmetry for dynamics (positions and initial velocities):
=====================================================================
 Subroutine PRICEL returns:
 Original cell was already a primitive cell.
 

 Routine SETGRP: Setting up the symmetry group for a 
 simple cubic supercell.


 Subroutine GETGRP returns: Found  1 space group operations
 (whereof  1 operations were pure point group operations)
 out of a pool of 48 trial point group operations.


The dynamic configuration has the point symmetry C_1 .


Analysis of constrained symmetry for selective dynamics:
=====================================================================
 Subroutine PRICEL returns:
 Original cell was already a primitive cell.
 

 Routine SETGRP: Setting up the symmetry group for a 
 simple cubic supercell.


 Subroutine GETGRP returns: Found  1 space group operations
 (whereof  1 operations were pure point group operations)
 out of a pool of 48 trial point group operations.


The constrained configuration has the point symmetry C_1 .


 Subroutine INISYM returns: Found  1 space group operations
 (whereof  1 operations are pure point group operations),
 and found     1 'primitive' translations

 
 
 KPOINTS: Mo2C                                    

Automatic generation of k-mesh.
Space group operators:
 irot       det(A)        alpha          n_x          n_y          n_z        tau_x        tau_y        tau_z
    1     1.000000     0.000000     1.000000     0.000000     0.000000     0.000000     0.000000     0.000000
 
 Subroutine IBZKPT returns following result:
 ===========================================
 
 Found      8 irreducible k-points:
 
 Following reciprocal coordinates:
            Coordinates               Weight
  0.000000  0.000000  0.000000      1.000000
  0.500000  0.000000  0.000000      1.000000
  0.000000  0.500000  0.000000      1.000000
  0.500000  0.500000  0.000000      1.000000
  0.000000  0.000000  0.500000      1.000000
  0.500000  0.000000  0.500000      1.000000
  0.000000  0.500000  0.500000      1.000000
  0.500000  0.500000  0.500000      1.000000
 
 Following cartesian coordinates:
            Coordinates               Weight
  0.000000  0.000000  0.000000      1.000000
  0.016667  0.000000  0.000000      1.000000
  0.000000  0.016667  0.000000      1.000000
  0.016667  0.016667  0.000000      1.000000
  0.000000  0.000000  0.016667      1.000000
  0.016667  0.000000  0.016667      1.000000
  0.000000  0.016667  0.016667      1.000000
  0.016667  0.016667  0.016667      1.000000
 


--------------------------------------------------------------------------------------------------------




 Dimension of arrays:
   k-points           NKPTS =      8   k-points in BZ     NKDIM =      8   number of bands    NBANDS=     12
   number of dos      NEDOS =    301   number of ions     NIONS =      6
   non local maximal  LDIM  =      4   non local SUM 2l+1 LMDIM =      8
   total plane-waves  NPLWV = ******
   max r-space proj   IRMAX =   2395   max aug-charges    IRDMAX=   1738
   dimension x,y,z NGX =   150 NGY =  150 NGZ =  150
   dimension x,y,z NGXF=   300 NGYF=  300 NGZF=  300
   support grid    NGXF=   300 NGYF=  300 NGZF=  300
   ions per type =               3   2   1
 NGX,Y,Z   is equivalent  to a cutoff of   8.31,  8.31,  8.31 a.u.
 NGXF,Y,Z  is equivalent  to a cutoff of  16.62, 16.62, 16.62 a.u.


 I would recommend the setting:
   dimension x,y,z NGX =   147 NGY =  147 NGZ =  147
 SYSTEM =  unknown system                          
 POSCAR =  H3 C2 N1                                

 Startparameter for this run:
   NWRITE =      2    write-flag & timer
   PREC   = normal    normal or accurate (medium, high low for compatibility)
   ISTART =      0    job   : 0-new  1-cont  2-samecut
   ICHARG =      2    charge: 1-file 2-atom 10-const
   ISPIN  =      1    spin polarized calculation?
   LNONCOLLINEAR =      F non collinear calculations
   LSORBIT =      F    spin-orbit coupling
   INIWAV =      1    electr: 0-lowe 1-rand  2-diag
   LASPH  =      F    aspherical Exc in radial PAW
   METAGGA=      F    non-selfconsistent MetaGGA calc.

 Electronic Relaxation 1
   ENCUT  =  400.0 eV  29.40 Ry    5.42 a.u.  48.92 48.92 48.92*2*pi/ulx,y,z
   ENINI  =  400.0     initial cutoff
   ENAUG  =  644.9 eV  augmentation charge cutoff
   NELM   =    100;   NELMIN=  6; NELMDL= -5     # of ELM steps 
   EDIFF  = 0.1E-03   stopping-criterion for ELM
   LREAL  =      T    real-space projection
   NLSPLINE    = F    spline interpolate recip. space projectors
   LCOMPAT=      F    compatible to vasp.4.4
   GGA_COMPAT  = T    GGA compatible to vasp.4.4-vasp.4.6
   LMAXPAW     = -100 max onsite density
   LMAXMIX     =    2 max onsite mixed and CHGCAR
   VOSKOWN=      0    Vosko Wilk Nusair interpolation
   ROPT   =   -0.00050  -0.00050  -0.00050
 Ionic relaxation
   EDIFFG = -.2E-01   stopping-criterion for IOM
   NSW    =    300    number of steps for IOM
   NBLOCK =      1;   KBLOCK =    300    inner block; outer block 
   IBRION =      2    ionic relax: 0-MD 1-quasi-New 2-CG
   NFREE  =      1    steps in history (QN), initial steepest desc. (CG)
   ISIF   =      2    stress and relaxation
   IWAVPR =     11    prediction:  0-non 1-charg 2-wave 3-comb
   ISYM   =      2    0-nonsym 1-usesym 2-fastsym
   LCORR  =      T    Harris-Foulkes like correction to forces

   POTIM  = 0.5000    time-step for ionic-motion
   TEIN   =    0.0    initial temperature
   TEBEG  =    0.0;   TEEND  =   0.0 temperature during run
   SMASS  =  -3.00    Nose mass-parameter (am)
   estimated Nose-frequenzy (Omega)   =  0.10E-29 period in steps =****** mass=  -0.206E-25a.u.
   SCALEE = 1.0000    scale energy and forces
   NPACO  =    256;   APACO  = 16.0  distance and # of slots for P.C.
   PSTRESS=    0.0 pullay stress

  Mass of Ions in am
   POMASS =   1.00 12.01 14.00
  Ionic Valenz
   ZVAL   =   1.00  4.00  5.00
  Atomic Wigner-Seitz radii
   RWIGS  =  -1.00 -1.00 -1.00
  virtual crystal weights 
   VCA    =   1.00  1.00  1.00
   NELECT =      16.0000    total number of electrons
   NUPDOWN=      -1.0000    fix difference up-down

 DOS related values:
   EMIN   =  10.00;   EMAX   =-10.00  energy-range for DOS
   EFERMI =   0.00
   ISMEAR =     0;   SIGMA  =   0.20  broadening in eV -4-tet -1-fermi 0-gaus

 Electronic relaxation 2 (details)
   IALGO  =     38    algorithm
   LDIAG  =      T    sub-space diagonalisation (order eigenvalues)
   LSUBROT=      F    optimize rotation matrix (better conditioning)
   TURBO    =      0    0=normal 1=particle mesh
   IRESTART =      0    0=no restart 2=restart with 2 vectors
   NREBOOT  =      0    no. of reboots
   NMIN     =      0    reboot dimension
   EREF     =   0.00    reference energy to select bands
   IMIX   =      4    mixing-type and parameters
     AMIX     =   0.40;   BMIX     =  1.00
     AMIX_MAG =   1.60;   BMIX_MAG =  1.00
     AMIN     =   0.10
     WC   =   100.;   INIMIX=   1;  MIXPRE=   1;  MAXMIX= -45

 Intra band minimization:
   WEIMIN = 0.0010     energy-eigenvalue tresh-hold
   EBREAK =  0.21E-05  absolut break condition
   DEPER  =   0.30     relativ break condition  

   TIME   =   0.40     timestep for ELM

  volume/ion in A,a.u.               =    4500.00     30367.50
  Fermi-wavevector in a.u.,A,eV,Ry     =   0.137508  0.259852  0.257264  0.018908
  Thomas-Fermi vector in A             =   0.790710
 
 Write flags
   LWAVE  =      T    write WAVECAR
   LCHARG =      T    write CHGCAR
   LVTOT  =      F    write LOCPOT, total local potential
   LVHAR  =      F    write LOCPOT, Hartree potential only
   LELF   =      F    write electronic localiz. function (ELF)
   LORBIT =      0    0 simple, 1 ext, 2 COOP (PROOUT)


 Dipole corrections
   LMONO  =      F    monopole corrections only (constant potential shift)
   LDIPOL =      F    correct potential (dipole corrections)
   IDIPOL =      0    1-x, 2-y, 3-z, 4-all directions 
   EPSILON=  1.0000000 bulk dielectric constant

 Exchange correlation treatment:
   GGA     =    PE    GGA type
   LEXCH   =     8    internal setting for exchange type
   VOSKOWN=      0    Vosko Wilk Nusair interpolation
   LHFCALC =     F    Hartree Fock is set to
   LHFONE  =     F    Hartree Fock one center treatment
   AEXX    =    0.0000 exact exchange contribution

 Linear response parameters
   LEPSILON=     F    determine dielectric tensor
   LRPA    =     F    only Hartree local field effects (RPA)
   LNABLA  =     F    use nabla operator in PAW spheres
   LVEL    =     F    velocity operator in full k-point grid
   LINTERFAST=   F  fast interpolation
   KINTER  =     0    interpolate to denser k-point grid
   CSHIFT  =0.1000    complex shift for real part using Kramers Kronig
   OMEGAMAX=  -1.0    maximum frequency
   DEG_THRESHOLD= 0.2000000E-02 threshold for treating states as degnerate
   RTIME   =    0.100 relaxation time in fs

 Orbital magnetization related:
   ORBITALMAG=     F  switch on orbital magnetization
   LCHIMAG   =     F  perturbation theory with respect to B field
   DQ        =  0.001000  dq finite difference perturbation B field



--------------------------------------------------------------------------------------------------------


 conjugate gradient relaxation of ions
   using selective dynamics as specified on POSCAR
 charge density and potential will be updated during run
 non-spin polarized calculation
 Variant of blocked Davidson
 Davidson routine will perform the subspace rotation
 perform sub-space diagonalisation
    after iterative eigenvector-optimisation
 modified Broyden-mixing scheme, WC =      100.0
 initial mixing is a Kerker type mixing with AMIX =  0.4000 and BMIX =      1.0000
 Hartree-type preconditioning will be used
 using additional bands            4
 real space projection scheme for non local part
 use partial core corrections
 calculate Harris-corrections to forces 
   (improved forces if not selfconsistent)
 use gradient corrections 
 use of overlap-Matrix (Vanderbilt PP)
 Gauss-broadening in eV      SIGMA  =   0.20


--------------------------------------------------------------------------------------------------------


  energy-cutoff  :      400.00
  volume of cell :    27000.00
      direct lattice vectors                 reciprocal lattice vectors
    30.000000000  0.000000000  0.000000000     0.033333333  0.000000000  0.000000000
     0.000000000 30.000000000  0.000000000     0.000000000  0.033333333  0.000000000
     0.000000000  0.000000000 30.000000000     0.000000000  0.000000000  0.033333333

  length of vectors
    30.000000000 30.000000000 30.000000000     0.033333333  0.033333333  0.033333333


 
 k-points in units of 2pi/SCALE and weight: Mo2C                                    
   0.00000000  0.00000000  0.00000000       0.125
   0.01666667  0.00000000  0.00000000       0.125
   0.00000000  0.01666667  0.00000000       0.125
   0.01666667  0.01666667  0.00000000       0.125
   0.00000000  0.00000000  0.01666667       0.125
   0.01666667  0.00000000  0.01666667       0.125
   0.00000000  0.01666667  0.01666667       0.125
   0.01666667  0.01666667  0.01666667       0.125
 
 k-points in reciprocal lattice and weights: Mo2C                                    
   0.00000000  0.00000000  0.00000000       0.125
   0.50000000  0.00000000  0.00000000       0.125
   0.00000000  0.50000000  0.00000000       0.125
   0.50000000  0.50000000  0.00000000       0.125
   0.00000000  0.00000000  0.50000000       0.125
   0.50000000  0.00000000  0.50000000       0.125
   0.00000000  0.50000000  0.50000000       0.125
   0.50000000  0.50000000  0.50000000       0.125
 
 position of ions in fractional coordinates (direct lattice) 
   0.42263000  0.50110000  0.50768000
   0.42263000  0.54498000  0.46380000
   0.42263000  0.56104000  0.52374000
   0.43530000  0.53571000  0.49840000
   0.48563000  0.53571000  0.49840000
   0.53596000  0.53527000  0.49840000
 
 position of ions in cartesian coordinates  (Angst):
  12.67890000 15.03300000 15.23040000
  12.67890000 16.34940000 13.91400000
  12.67890000 16.83120000 15.71220000
  13.05900000 16.07130000 14.95200000
  14.56890000 16.07130000 14.95200000
  16.07880000 16.05810000 14.95200000
 


--------------------------------------------------------------------------------------------------------


 k-point  1 :   0.0000 0.0000 0.0000  plane waves:  490521
 k-point  2 :   0.5000 0.0000 0.0000  plane waves:  490674
 k-point  3 :   0.0000 0.5000 0.0000  plane waves:  490674
 k-point  4 :   0.5000 0.5000 0.0000  plane waves:  490404
 k-point  5 :   0.0000 0.0000 0.5000  plane waves:  490674
 k-point  6 :   0.5000 0.0000 0.5000  plane waves:  490404
 k-point  7 :   0.0000 0.5000 0.5000  plane waves:  490404
 k-point  8 :   0.5000 0.5000 0.5000  plane waves:  490400

 maximum and minimum number of plane-waves per node :    490674   490400

 maximum number of plane-waves:    490674
 maximum index in each direction: 
   IXMAX=   48   IYMAX=   48   IZMAX=   48
   IXMIN=  -49   IYMIN=  -49   IZMIN=  -49

 WARNING: aliasing errors must be expected set NGX to 196 to avoid them
 WARNING: aliasing errors must be expected set NGY to 196 to avoid them
 WARNING: aliasing errors must be expected set NGZ to 196 to avoid them
 aliasing errors are usually negligible using standard VASP settings
 and one can safely disregard these warnings

 serial   3D FFT for wavefunctions
 parallel 3D FFT for charge:
    minimum data exchange during FFTs selected (reduces bandwidth)


 total amount of memory used by VASP on root node  1880339. kBytes
========================================================================

   base      :      30000. kBytes
   nonlr-proj:        693. kBytes
   fftplans  :     469080. kBytes
   grid      :    1003680. kBytes
   one-center:         18. kBytes
   wavefun   :     376868. kBytes
 
     INWAV:  cpu time    0.0000: real time    0.0004
 Broyden mixing: mesh for mixing (old mesh)
   NGX = 97   NGY = 97   NGZ = 97
  (NGX  =300   NGY  =300   NGZ  =300)
  gives a total of 912673 points

 initial charge density was supplied:
 charge density of overlapping atoms calculated
 number of electron      16.0000000 magnetization 
 keeping initial charge density in first step


--------------------------------------------------------------------------------------------------------


 Maximum index for non-local projection operator         2278
 Maximum index for augmentation-charges          736 (set IRDMAX)


--------------------------------------------------------------------------------------------------------


 First call to EWALD:  gamma=   0.059
 Maximum number of real-space cells 3x 3x 3
 Maximum number of reciprocal cells 3x 3x 3

 FEWALD executed in parallel
    FEWALD:  cpu time    0.0010: real time    0.0009


----------------------------------------- Iteration    1(   1)  ---------------------------------------


    POTLOK:  cpu time    6.3850: real time    6.3940
    SETDIJ:  cpu time    0.0030: real time    0.0029
     EDDAV:  cpu time    7.1539: real time    7.1908
       DOS:  cpu time    0.0010: real time    0.0003
    --------------------------------------------
      LOOP:  cpu time   13.5439: real time   13.5915

 eigenvalue-minimisations  :   320
 total energy-change (2. order) : 0.9482668E+02  (-0.2063124E+03)
 number of electron      16.0000000 magnetization 
 augmentation part       16.0000000 magnetization 

 Free energy of the ion-electron system (eV)
  ---------------------------------------------------
  alpha Z        PSCENC =         0.04144063
  Ewald energy   TEWEN  =       579.80075934
  -Hartree energ DENC   =     -1019.08658351
  -exchange      EXHF   =         0.00000000
  -V(xc)+E(xc)   XCENC  =        49.93115950
  PAW double counting   =       428.37890668     -430.73533574
  entropy T*S    EENTRO =        -0.19548540
  eigenvalues    EBANDS =      -109.47352970
  atomic energy  EATOM  =       596.16534815
  Solvation  Ediel_sol  =         0.00000000
  ---------------------------------------------------
  free energy    TOTEN  =        94.82667996 eV

  energy without entropy =       95.02216535  energy(sigma->0) =       94.92442265


--------------------------------------------------------------------------------------------------------




----------------------------------------- Iteration    1(   2)  ---------------------------------------


     EDDAV:  cpu time    7.8428: real time    7.8714
       DOS:  cpu time    0.0000: real time    0.0002
    --------------------------------------------
      LOOP:  cpu time    7.8438: real time    7.8748

 eigenvalue-minimisations  :   352
 total energy-change (2. order) :-0.8877119E+02  (-0.8624006E+02)
 number of electron      16.0000000 magnetization 
 augmentation part       16.0000000 magnetization 

 Free energy of the ion-electron system (eV)
  ---------------------------------------------------
  alpha Z        PSCENC =         0.04144063
  Ewald energy   TEWEN  =       579.80075934
  -Hartree energ DENC   =     -1019.08658351
  -exchange      EXHF   =         0.00000000
  -V(xc)+E(xc)   XCENC  =        49.93115950
  PAW double counting   =       428.37890668     -430.73533574
  entropy T*S    EENTRO =        -0.05491967
  eigenvalues    EBANDS =      -198.38528685
  atomic energy  EATOM  =       596.16534815
  Solvation  Ediel_sol  =         0.00000000
  ---------------------------------------------------
  free energy    TOTEN  =         6.05548853 eV

  energy without entropy =        6.11040820  energy(sigma->0) =        6.08294837


--------------------------------------------------------------------------------------------------------




----------------------------------------- Iteration    1(   3)  ---------------------------------------


     EDDAV:  cpu time    7.2079: real time    7.2350
       DOS:  cpu time    0.0000: real time    0.0001
    --------------------------------------------
      LOOP:  cpu time    7.2089: real time    7.2388

 eigenvalue-minimisations  :   316
 total energy-change (2. order) :-0.3637575E+02  (-0.3532188E+02)
 number of electron      16.0000000 magnetization 
 augmentation part       16.0000000 magnetization 

 Free energy of the ion-electron system (eV)
  ---------------------------------------------------
  alpha Z        PSCENC =         0.04144063
  Ewald energy   TEWEN  =       579.80075934
  -Hartree energ DENC   =     -1019.08658351
  -exchange      EXHF   =         0.00000000
  -V(xc)+E(xc)   XCENC  =        49.93115950
  PAW double counting   =       428.37890668     -430.73533574
  entropy T*S    EENTRO =         0.00000000
  eigenvalues    EBANDS =      -234.81595493
  atomic energy  EATOM  =       596.16534815
  Solvation  Ediel_sol  =         0.00000000
  ---------------------------------------------------
  free energy    TOTEN  =       -30.32025988 eV

  energy without entropy =      -30.32025988  energy(sigma->0) =      -30.32025988


--------------------------------------------------------------------------------------------------------




----------------------------------------- Iteration    1(   4)  ---------------------------------------


     EDDAV:  cpu time    6.2700: real time    6.2953
       DOS:  cpu time    0.0000: real time    0.0001
    --------------------------------------------
      LOOP:  cpu time    6.2710: real time    6.2993

 eigenvalue-minimisations  :   256
 total energy-change (2. order) :-0.4995616E+01  (-0.4952642E+01)
 number of electron      16.0000000 magnetization 
 augmentation part       16.0000000 magnetization 

 Free energy of the ion-electron system (eV)
  ---------------------------------------------------
  alpha Z        PSCENC =         0.04144063
  Ewald energy   TEWEN  =       579.80075934
  -Hartree energ DENC   =     -1019.08658351
  -exchange      EXHF   =         0.00000000
  -V(xc)+E(xc)   XCENC  =        49.93115950
  PAW double counting   =       428.37890668     -430.73533574
  entropy T*S    EENTRO =         0.00000000
  eigenvalues    EBANDS =      -239.81157133
  atomic energy  EATOM  =       596.16534815
  Solvation  Ediel_sol  =         0.00000000
  ---------------------------------------------------
  free energy    TOTEN  =       -35.31587628 eV

  energy without entropy =      -35.31587628  energy(sigma->0) =      -35.31587628


--------------------------------------------------------------------------------------------------------




----------------------------------------- Iteration    1(   5)  ---------------------------------------


     EDDAV:  cpu time    6.9030: real time    6.9266
       DOS:  cpu time    0.0000: real time    0.0001
    CHARGE:  cpu time    1.1998: real time    1.2030
    MIXING:  cpu time    0.1940: real time    0.1950
    --------------------------------------------
      LOOP:  cpu time    8.2987: real time    8.3288

 eigenvalue-minimisations  :   300
 total energy-change (2. order) :-0.2077285E+00  (-0.1926958E+00)
 number of electron      15.9999987 magnetization 
 augmentation part        0.3940575 magnetization 

 Broyden mixing:
  rms(total) = 0.83580E+00    rms(broyden)= 0.83523E+00
  rms(prec ) = 0.87502E+00
  weight for this iteration     100.00

 Free energy of the ion-electron system (eV)
  ---------------------------------------------------
  alpha Z        PSCENC =         0.04144063
  Ewald energy   TEWEN  =       579.80075934
  -Hartree energ DENC   =     -1019.08658351
  -exchange      EXHF   =         0.00000000
  -V(xc)+E(xc)   XCENC  =        49.93115950
  PAW double counting   =       428.37890668     -430.73533574
  entropy T*S    EENTRO =         0.00000000
  eigenvalues    EBANDS =      -240.01929981
  atomic energy  EATOM  =       596.16534815
  Solvation  Ediel_sol  =         0.00000000
  ---------------------------------------------------
  free energy    TOTEN  =       -35.52360476 eV

  energy without entropy =      -35.52360476  energy(sigma->0) =      -35.52360476


--------------------------------------------------------------------------------------------------------




----------------------------------------- Iteration    1(   6)  ---------------------------------------


    POTLOK:  cpu time    6.1891: real time    6.1943
    SETDIJ:  cpu time    0.0020: real time    0.0024
     EDDAV:  cpu time    5.8241: real time    5.8501
       DOS:  cpu time    0.0000: real time    0.0001
    CHARGE:  cpu time    1.1848: real time    1.1857
    MIXING:  cpu time    0.2100: real time    0.2109
    --------------------------------------------
      LOOP:  cpu time   13.4120: real time   13.4471

 eigenvalue-minimisations  :   232
 total energy-change (2. order) : 0.1541672E+01  (-0.4723857E+00)
 number of electron      15.9999995 magnetization 
 augmentation part        0.2955391 magnetization 

 Broyden mixing:
  rms(total) = 0.62066E+00    rms(broyden)= 0.62007E+00
  rms(prec ) = 0.65057E+00
  weight for this iteration     100.00

 eigenvalues of (default mixing * dielectric matrix)
  average eigenvalue GAMMA=   0.7016
  0.7016

 Free energy of the ion-electron system (eV)
  ---------------------------------------------------
  alpha Z        PSCENC =         0.04144063
  Ewald energy   TEWEN  =       579.80075934
  -Hartree energ DENC   =     -1040.10466996
  -exchange      EXHF   =         0.00000000
  -V(xc)+E(xc)   XCENC  =        51.18571023
  PAW double counting   =       608.09528870     -610.61924031
  entropy T*S    EENTRO =         0.00000000
  eigenvalues    EBANDS =      -218.54656986
  atomic energy  EATOM  =       596.16534815
  Solvation  Ediel_sol  =         0.00000000
  ---------------------------------------------------
  free energy    TOTEN  =       -33.98193308 eV

  energy without entropy =      -33.98193308  energy(sigma->0) =      -33.98193308


--------------------------------------------------------------------------------------------------------




----------------------------------------- Iteration    1(   7)  ---------------------------------------


    POTLOK:  cpu time    6.1881: real time    6.1941
    SETDIJ:  cpu time    0.0020: real time    0.0024
     EDDAV:  cpu time    6.4260: real time    6.4510
       DOS:  cpu time    0.0000: real time    0.0001
    CHARGE:  cpu time    1.1878: real time    1.1889
    MIXING:  cpu time    0.2230: real time    0.2233
    --------------------------------------------
      LOOP:  cpu time   14.0279: real time   14.0624

 eigenvalue-minimisations  :   264
 total energy-change (2. order) : 0.3444368E+00  (-0.1066133E+00)
 number of electron      15.9999988 magnetization 
 augmentation part        0.3624537 magnetization 

 Broyden mixing:
  rms(total) = 0.40499E+00    rms(broyden)= 0.40433E+00
  rms(prec ) = 0.42917E+00
  weight for this iteration     100.00

 eigenvalues of (default mixing * dielectric matrix)
  average eigenvalue GAMMA=   1.0384
  1.6363  0.4406

 Free energy of the ion-electron system (eV)
  ---------------------------------------------------
  alpha Z        PSCENC =         0.04144063
  Ewald energy   TEWEN  =       579.80075934
  -Hartree energ DENC   =     -1044.66749471
  -exchange      EXHF   =         0.00000000
  -V(xc)+E(xc)   XCENC  =        51.35803192
  PAW double counting   =       686.53515749     -689.05381216
  entropy T*S    EENTRO =         0.00000000
  eigenvalues    EBANDS =      -213.81692690
  atomic energy  EATOM  =       596.16534815
  Solvation  Ediel_sol  =         0.00000000
  ---------------------------------------------------
  free energy    TOTEN  =       -33.63749623 eV

  energy without entropy =      -33.63749623  energy(sigma->0) =      -33.63749623


--------------------------------------------------------------------------------------------------------




----------------------------------------- Iteration    1(   8)  ---------------------------------------


    POTLOK:  cpu time    6.1921: real time    6.1965
    SETDIJ:  cpu time    0.0020: real time    0.0025
     EDDAV:  cpu time    6.3270: real time    6.3529
       DOS:  cpu time    0.0000: real time    0.0001
    CHARGE:  cpu time    1.2108: real time    1.2123
    MIXING:  cpu time    0.2480: real time    0.2497
    --------------------------------------------
      LOOP:  cpu time   13.9809: real time   14.0168

 eigenvalue-minimisations  :   256
 total energy-change (2. order) : 0.3879328E+00  (-0.4368344E-01)
 number of electron      15.9999991 magnetization 
 augmentation part        0.3251918 magnetization 

 Broyden mixing:
  rms(total) = 0.14189E+00    rms(broyden)= 0.14161E+00
  rms(prec ) = 0.14714E+00
  weight for this iteration     100.00

 eigenvalues of (default mixing * dielectric matrix)
  average eigenvalue GAMMA=   1.3223
  2.3121  1.2331  0.4218

 Free energy of the ion-electron system (eV)
  ---------------------------------------------------
  alpha Z        PSCENC =         0.04144063
  Ewald energy   TEWEN  =       579.80075934
  -Hartree energ DENC   =     -1054.93591586
  -exchange      EXHF   =         0.00000000
  -V(xc)+E(xc)   XCENC  =        52.04894893
  PAW double counting   =       830.96675363     -833.51524862
  entropy T*S    EENTRO =         0.00000000
  eigenvalues    EBANDS =      -203.82164963
  atomic energy  EATOM  =       596.16534815
  Solvation  Ediel_sol  =         0.00000000
  ---------------------------------------------------
  free energy    TOTEN  =       -33.24956342 eV

  energy without entropy =      -33.24956342  energy(sigma->0) =      -33.24956342


--------------------------------------------------------------------------------------------------------




----------------------------------------- Iteration    1(   9)  ---------------------------------------


    POTLOK:  cpu time    6.2281: real time    6.2418
    SETDIJ:  cpu time    0.0020: real time    0.0025
     EDDAV:  cpu time    7.2639: real time    7.2984
       DOS:  cpu time    0.0000: real time    0.0001
    CHARGE:  cpu time    1.1928: real time    1.1947
    MIXING:  cpu time    0.2540: real time    0.2537
    --------------------------------------------
      LOOP:  cpu time   14.9427: real time   14.9940

 eigenvalue-minimisations  :   320
 total energy-change (2. order) : 0.4495065E-01  (-0.1515441E-01)
 number of electron      15.9999992 magnetization 
 augmentation part        0.3196966 magnetization 

 Broyden mixing:
  rms(total) = 0.64749E-01    rms(broyden)= 0.64684E-01
  rms(prec ) = 0.69953E-01
  weight for this iteration     100.00

 eigenvalues of (default mixing * dielectric matrix)
  average eigenvalue GAMMA=   1.2578
  2.3283  1.3930  0.4283  0.8817

 Free energy of the ion-electron system (eV)
  ---------------------------------------------------
  alpha Z        PSCENC =         0.04144063
  Ewald energy   TEWEN  =       579.80075934
  -Hartree energ DENC   =     -1060.39722769
  -exchange      EXHF   =         0.00000000
  -V(xc)+E(xc)   XCENC  =        52.38779013
  PAW double counting   =       925.45142047     -927.97661901
  entropy T*S    EENTRO =         0.00000000
  eigenvalues    EBANDS =      -198.67752479
  atomic energy  EATOM  =       596.16534815
  Solvation  Ediel_sol  =         0.00000000
  ---------------------------------------------------
  free energy    TOTEN  =       -33.20461277 eV

  energy without entropy =      -33.20461277  energy(sigma->0) =      -33.20461277


--------------------------------------------------------------------------------------------------------




----------------------------------------- Iteration    1(  10)  ---------------------------------------


    POTLOK:  cpu time    6.2131: real time    6.2186
    SETDIJ:  cpu time    0.0020: real time    0.0024
     EDDAV:  cpu time    6.3280: real time    6.3500
       DOS:  cpu time    0.0000: real time    0.0001
    CHARGE:  cpu time    1.1898: real time    1.1909
    MIXING:  cpu time    0.2730: real time    0.2723
    --------------------------------------------
      LOOP:  cpu time   14.0069: real time   14.0383

 eigenvalue-minimisations  :   256
 total energy-change (2. order) : 0.7752876E-02  (-0.1065112E-02)
 number of electron      15.9999991 magnetization 
 augmentation part        0.3244491 magnetization 

 Broyden mixing:
  rms(total) = 0.23776E-01    rms(broyden)= 0.23751E-01
  rms(prec ) = 0.29496E-01
  weight for this iteration     100.00

 eigenvalues of (default mixing * dielectric matrix)
  average eigenvalue GAMMA=   1.3136
  2.3643  0.4270  0.9731  1.4018  1.4018

 Free energy of the ion-electron system (eV)
  ---------------------------------------------------
  alpha Z        PSCENC =         0.04144063
  Ewald energy   TEWEN  =       579.80075934
  -Hartree energ DENC   =     -1060.76016855
  -exchange      EXHF   =         0.00000000
  -V(xc)+E(xc)   XCENC  =        52.38385724
  PAW double counting   =       927.43159543     -929.94680409
  entropy T*S    EENTRO =         0.00000000
  eigenvalues    EBANDS =      -198.31288804
  atomic energy  EATOM  =       596.16534815
  Solvation  Ediel_sol  =         0.00000000
  ---------------------------------------------------
  free energy    TOTEN  =       -33.19685990 eV

  energy without entropy =      -33.19685990  energy(sigma->0) =      -33.19685990


--------------------------------------------------------------------------------------------------------




----------------------------------------- Iteration    1(  11)  ---------------------------------------


    POTLOK:  cpu time    6.5670: real time    6.5752
    SETDIJ:  cpu time    0.0020: real time    0.0025
     EDDAV:  cpu time    6.3250: real time    6.3535
       DOS:  cpu time    0.0000: real time    0.0001
    CHARGE:  cpu time    1.1918: real time    1.1932
    MIXING:  cpu time    0.2870: real time    0.2881
    --------------------------------------------
      LOOP:  cpu time   14.3728: real time   14.4158

 eigenvalue-minimisations  :   256
 total energy-change (2. order) : 0.8951864E-03  (-0.3831903E-03)
 number of electron      15.9999991 magnetization 
 augmentation part        0.3244220 magnetization 

 Broyden mixing:
  rms(total) = 0.12155E-01    rms(broyden)= 0.12149E-01
  rms(prec ) = 0.17528E-01
  weight for this iteration     100.00

 eigenvalues of (default mixing * dielectric matrix)
  average eigenvalue GAMMA=   1.3788
  2.4040  2.4040  0.4272  1.2230  0.9073  0.9073

 Free energy of the ion-electron system (eV)
  ---------------------------------------------------
  alpha Z        PSCENC =         0.04144063
  Ewald energy   TEWEN  =       579.80075934
  -Hartree energ DENC   =     -1061.72625120
  -exchange      EXHF   =         0.00000000
  -V(xc)+E(xc)   XCENC  =        52.40364330
  PAW double counting   =       927.73397209     -930.24601499
  entropy T*S    EENTRO =         0.00000000
  eigenvalues    EBANDS =      -197.36886203
  atomic energy  EATOM  =       596.16534815
  Solvation  Ediel_sol  =         0.00000000
  ---------------------------------------------------
  free energy    TOTEN  =       -33.19596471 eV

  energy without entropy =      -33.19596471  energy(sigma->0) =      -33.19596471


--------------------------------------------------------------------------------------------------------




----------------------------------------- Iteration    1(  12)  ---------------------------------------


    POTLOK:  cpu time    6.2600: real time    6.2673
    SETDIJ:  cpu time    0.0030: real time    0.0030
     EDDAV:  cpu time    6.3300: real time    6.3552
       DOS:  cpu time    0.0000: real time    0.0002
    CHARGE:  cpu time    1.1908: real time    1.1926
    MIXING:  cpu time    0.3100: real time    0.3098
    --------------------------------------------
      LOOP:  cpu time   14.0959: real time   14.1313

 eigenvalue-minimisations  :   256
 total energy-change (2. order) :-0.2457807E-02  (-0.1950183E-03)
 number of electron      15.9999991 magnetization 
 augmentation part        0.3250409 magnetization 

 Broyden mixing:
  rms(total) = 0.88281E-02    rms(broyden)= 0.88235E-02
  rms(prec ) = 0.12706E-01
  weight for this iteration     100.00

 eigenvalues of (default mixing * dielectric matrix)
  average eigenvalue GAMMA=   1.5905
  3.4337  2.2515  0.4272  1.5218  1.5218  0.9160  1.0618

 Free energy of the ion-electron system (eV)
  ---------------------------------------------------
  alpha Z        PSCENC =         0.04144063
  Ewald energy   TEWEN  =       579.80075934
  -Hartree energ DENC   =     -1062.46004622
  -exchange      EXHF   =         0.00000000
  -V(xc)+E(xc)   XCENC  =        52.41060892
  PAW double counting   =       923.73909617     -926.24733633
  entropy T*S    EENTRO =         0.00000000
  eigenvalues    EBANDS =      -196.64829317
  atomic energy  EATOM  =       596.16534815
  Solvation  Ediel_sol  =         0.00000000
  ---------------------------------------------------
  free energy    TOTEN  =       -33.19842252 eV

  energy without entropy =      -33.19842252  energy(sigma->0) =      -33.19842252


--------------------------------------------------------------------------------------------------------




----------------------------------------- Iteration    1(  13)  ---------------------------------------


    POTLOK:  cpu time    6.2530: real time    6.2602
    SETDIJ:  cpu time    0.0020: real time    0.0025
     EDDAV:  cpu time    6.1561: real time    6.1806
       DOS:  cpu time    0.0000: real time    0.0001
    CHARGE:  cpu time    1.1938: real time    1.1968
    MIXING:  cpu time    0.3219: real time    0.3234
    --------------------------------------------
      LOOP:  cpu time   13.9279: real time   13.9666

 eigenvalue-minimisations  :   248
 total energy-change (2. order) :-0.7569687E-02  (-0.3778745E-03)
 number of electron      15.9999991 magnetization 
 augmentation part        0.3241101 magnetization 

 Broyden mixing:
  rms(total) = 0.39315E-02    rms(broyden)= 0.39172E-02
  rms(prec ) = 0.58154E-02
  weight for this iteration     100.00

 eigenvalues of (default mixing * dielectric matrix)
  average eigenvalue GAMMA=   1.6977
  4.5620  2.4140  1.8158  0.4272  1.2189  1.2189  0.9623  0.9623

 Free energy of the ion-electron system (eV)
  ---------------------------------------------------
  alpha Z        PSCENC =         0.04144063
  Ewald energy   TEWEN  =       579.80075934
  -Hartree energ DENC   =     -1063.72448567
  -exchange      EXHF   =         0.00000000
  -V(xc)+E(xc)   XCENC  =        52.43964960
  PAW double counting   =       922.04085668     -924.54675805
  entropy T*S    EENTRO =         0.00000000
  eigenvalues    EBANDS =      -195.42280288
  atomic energy  EATOM  =       596.16534815
  Solvation  Ediel_sol  =         0.00000000
  ---------------------------------------------------
  free energy    TOTEN  =       -33.20599220 eV

  energy without entropy =      -33.20599220  energy(sigma->0) =      -33.20599220


--------------------------------------------------------------------------------------------------------




----------------------------------------- Iteration    1(  14)  ---------------------------------------


    POTLOK:  cpu time    6.2091: real time    6.2180
    SETDIJ:  cpu time    0.0020: real time    0.0025
     EDDAV:  cpu time    7.2559: real time    7.2829
       DOS:  cpu time    0.0010: real time    0.0002
    CHARGE:  cpu time    1.2058: real time    1.2088
    MIXING:  cpu time    0.3489: real time    0.3499
    --------------------------------------------
      LOOP:  cpu time   15.0237: real time   15.0650

 eigenvalue-minimisations  :   320
 total energy-change (2. order) :-0.4547278E-02  (-0.1109764E-03)
 number of electron      15.9999991 magnetization 
 augmentation part        0.3238577 magnetization 

 Broyden mixing:
  rms(total) = 0.32385E-02    rms(broyden)= 0.32364E-02
  rms(prec ) = 0.42345E-02
  weight for this iteration     100.00

 eigenvalues of (default mixing * dielectric matrix)
  average eigenvalue GAMMA=   1.7378
  4.9453  2.4103  0.4272  1.8298  1.3661  1.3661  1.4204  0.9374  0.9374

 Free energy of the ion-electron system (eV)
  ---------------------------------------------------
  alpha Z        PSCENC =         0.04144063
  Ewald energy   TEWEN  =       579.80075934
  -Hartree energ DENC   =     -1064.03373904
  -exchange      EXHF   =         0.00000000
  -V(xc)+E(xc)   XCENC  =        52.43721202
  PAW double counting   =       919.85160991     -922.35734064
  entropy T*S    EENTRO =         0.00000000
  eigenvalues    EBANDS =      -195.11582987
  atomic energy  EATOM  =       596.16534815
  Solvation  Ediel_sol  =         0.00000000
  ---------------------------------------------------
  free energy    TOTEN  =       -33.21053948 eV

  energy without entropy =      -33.21053948  energy(sigma->0) =      -33.21053948


--------------------------------------------------------------------------------------------------------




----------------------------------------- Iteration    1(  15)  ---------------------------------------


    POTLOK:  cpu time    6.2201: real time    6.2251
    SETDIJ:  cpu time    0.0030: real time    0.0031
     EDDAV:  cpu time    5.3692: real time    5.3876
       DOS:  cpu time    0.0000: real time    0.0001
    CHARGE:  cpu time    1.1998: real time    1.2018
    MIXING:  cpu time    0.3699: real time    0.3708
    --------------------------------------------
      LOOP:  cpu time   13.1640: real time   13.1924

 eigenvalue-minimisations  :   200
 total energy-change (2. order) :-0.3545732E-02  (-0.2981221E-04)
 number of electron      15.9999991 magnetization 
 augmentation part        0.3237320 magnetization 

 Broyden mixing:
  rms(total) = 0.19301E-02    rms(broyden)= 0.19287E-02
  rms(prec ) = 0.26110E-02
  weight for this iteration     100.00

 eigenvalues of (default mixing * dielectric matrix)
  average eigenvalue GAMMA=   1.8720
  5.5727  3.2943  2.3540  0.4272  1.4173  1.4173  1.4295  0.9525  0.9525  0.9025

 Free energy of the ion-electron system (eV)
  ---------------------------------------------------
  alpha Z        PSCENC =         0.04144063
  Ewald energy   TEWEN  =       579.80075934
  -Hartree energ DENC   =     -1064.07834915
  -exchange      EXHF   =         0.00000000
  -V(xc)+E(xc)   XCENC  =        52.43027599
  PAW double counting   =       919.62433655     -922.12954576
  entropy T*S    EENTRO =         0.00000000
  eigenvalues    EBANDS =      -195.06835096
  atomic energy  EATOM  =       596.16534815
  Solvation  Ediel_sol  =         0.00000000
  ---------------------------------------------------
  free energy    TOTEN  =       -33.21408521 eV

  energy without entropy =      -33.21408521  energy(sigma->0) =      -33.21408521


--------------------------------------------------------------------------------------------------------




----------------------------------------- Iteration    1(  16)  ---------------------------------------


    POTLOK:  cpu time    6.2301: real time    6.2380
    SETDIJ:  cpu time    0.0030: real time    0.0025
     EDDAV:  cpu time    6.1661: real time    6.1902
       DOS:  cpu time    0.0000: real time    0.0001
    CHARGE:  cpu time    1.1938: real time    1.1960
    MIXING:  cpu time    0.3879: real time    0.3878
    --------------------------------------------
      LOOP:  cpu time   13.9819: real time   14.0185

 eigenvalue-minimisations  :   248
 total energy-change (2. order) :-0.2469256E-02  (-0.2638379E-04)
 number of electron      15.9999991 magnetization 
 augmentation part        0.3237946 magnetization 

 Broyden mixing:
  rms(total) = 0.13336E-02    rms(broyden)= 0.13334E-02
  rms(prec ) = 0.16598E-02
  weight for this iteration     100.00

 eigenvalues of (default mixing * dielectric matrix)
  average eigenvalue GAMMA=   2.0228
  6.6482  3.2762  2.3155  2.3155  0.4272  1.4619  1.4619  1.4972  0.9401  0.9401
  0.9674

 Free energy of the ion-electron system (eV)
  ---------------------------------------------------
  alpha Z        PSCENC =         0.04144063
  Ewald energy   TEWEN  =       579.80075934
  -Hartree energ DENC   =     -1064.11754932
  -exchange      EXHF   =         0.00000000
  -V(xc)+E(xc)   XCENC  =        52.42577338
  PAW double counting   =       919.70166803     -922.20696454
  entropy T*S    EENTRO =         0.00000000
  eigenvalues    EBANDS =      -195.02703013
  atomic energy  EATOM  =       596.16534815
  Solvation  Ediel_sol  =         0.00000000
  ---------------------------------------------------
  free energy    TOTEN  =       -33.21655447 eV

  energy without entropy =      -33.21655447  energy(sigma->0) =      -33.21655447


--------------------------------------------------------------------------------------------------------




----------------------------------------- Iteration    1(  17)  ---------------------------------------


    POTLOK:  cpu time    6.2021: real time    6.2097
    SETDIJ:  cpu time    0.0020: real time    0.0025
     EDDAV:  cpu time    4.4063: real time    4.4309
       DOS:  cpu time    0.0000: real time    0.0002
    CHARGE:  cpu time    1.1858: real time    1.1873
    MIXING:  cpu time    0.4119: real time    0.4120
    --------------------------------------------
      LOOP:  cpu time   12.2091: real time   12.2455

 eigenvalue-minimisations  :   136
 total energy-change (2. order) :-0.1605018E-02  (-0.1091979E-04)
 number of electron      15.9999991 magnetization 
 augmentation part        0.3238099 magnetization 

 Broyden mixing:
  rms(total) = 0.64320E-03    rms(broyden)= 0.64260E-03
  rms(prec ) = 0.79413E-03
  weight for this iteration     100.00

 eigenvalues of (default mixing * dielectric matrix)
  average eigenvalue GAMMA=   2.0843
  7.6390  3.8266  2.6568  2.2686  0.4272  1.4735  1.4735  1.2928  0.9257  0.9257
  1.0510  1.0510

 Free energy of the ion-electron system (eV)
  ---------------------------------------------------
  alpha Z        PSCENC =         0.04144063
  Ewald energy   TEWEN  =       579.80075934
  -Hartree energ DENC   =     -1064.18183466
  -exchange      EXHF   =         0.00000000
  -V(xc)+E(xc)   XCENC  =        52.42461670
  PAW double counting   =       920.10539997     -922.61118446
  entropy T*S    EENTRO =         0.00000000
  eigenvalues    EBANDS =      -194.96270515
  atomic energy  EATOM  =       596.16534815
  Solvation  Ediel_sol  =         0.00000000
  ---------------------------------------------------
  free energy    TOTEN  =       -33.21815949 eV

  energy without entropy =      -33.21815949  energy(sigma->0) =      -33.21815949


--------------------------------------------------------------------------------------------------------




----------------------------------------- Iteration    1(  18)  ---------------------------------------


    POTLOK:  cpu time    6.2001: real time    6.2081
    SETDIJ:  cpu time    0.0030: real time    0.0025
     EDDAV:  cpu time    5.3512: real time    5.3765
       DOS:  cpu time    0.0010: real time    0.0002
    CHARGE:  cpu time    1.1888: real time    1.1913
    MIXING:  cpu time    0.4379: real time    0.4381
    --------------------------------------------
      LOOP:  cpu time   13.1820: real time   13.2194

 eigenvalue-minimisations  :   192
 total energy-change (2. order) :-0.3942322E-03  (-0.5031857E-05)
 number of electron      15.9999991 magnetization 
 augmentation part        0.3237879 magnetization 

 Broyden mixing:
  rms(total) = 0.50992E-03    rms(broyden)= 0.50982E-03
  rms(prec ) = 0.59572E-03
  weight for this iteration     100.00

 eigenvalues of (default mixing * dielectric matrix)
  average eigenvalue GAMMA=   2.1310
  7.8579  4.2598  2.5938  0.4272  2.2047  1.7854  1.7854  1.4360  1.4360  1.1287
  0.9374  0.9374  0.9138

 Free energy of the ion-electron system (eV)
  ---------------------------------------------------
  alpha Z        PSCENC =         0.04144063
  Ewald energy   TEWEN  =       579.80075934
  -Hartree energ DENC   =     -1064.17527545
  -exchange      EXHF   =         0.00000000
  -V(xc)+E(xc)   XCENC  =        52.42365023
  PAW double counting   =       920.25093667     -922.75648546
  entropy T*S    EENTRO =         0.00000000
  eigenvalues    EBANDS =      -194.96892784
  atomic energy  EATOM  =       596.16534815
  Solvation  Ediel_sol  =         0.00000000
  ---------------------------------------------------
  free energy    TOTEN  =       -33.21855372 eV

  energy without entropy =      -33.21855372  energy(sigma->0) =      -33.21855372


--------------------------------------------------------------------------------------------------------




----------------------------------------- Iteration    1(  19)  ---------------------------------------


    POTLOK:  cpu time    6.1591: real time    6.1654
    SETDIJ:  cpu time    0.0020: real time    0.0027
     EDDAV:  cpu time    4.2694: real time    4.2907
       DOS:  cpu time    0.0000: real time    0.0002
    CHARGE:  cpu time    1.1868: real time    1.1879
    MIXING:  cpu time    0.4639: real time    0.4649
    --------------------------------------------
      LOOP:  cpu time   12.0822: real time   12.1146

 eigenvalue-minimisations  :   128
 total energy-change (2. order) :-0.4041906E-03  (-0.3126797E-05)
 number of electron      15.9999991 magnetization 
 augmentation part        0.3237986 magnetization 

 Broyden mixing:
  rms(total) = 0.39835E-03    rms(broyden)= 0.39826E-03
  rms(prec ) = 0.43639E-03
  weight for this iteration     100.00

 eigenvalues of (default mixing * dielectric matrix)
  average eigenvalue GAMMA=   2.1924
  8.3259  4.9916  2.8150  2.8150  2.1826  0.4272  1.4874  1.4874  1.2127  1.2127
  0.9691  0.9691  0.9094  0.8889

 Free energy of the ion-electron system (eV)
  ---------------------------------------------------
  alpha Z        PSCENC =         0.04144063
  Ewald energy   TEWEN  =       579.80075934
  -Hartree energ DENC   =     -1064.14279640
  -exchange      EXHF   =         0.00000000
  -V(xc)+E(xc)   XCENC  =        52.42160680
  PAW double counting   =       920.00579507     -922.51086496
  entropy T*S    EENTRO =         0.00000000
  eigenvalues    EBANDS =      -195.00024653
  atomic energy  EATOM  =       596.16534815
  Solvation  Ediel_sol  =         0.00000000
  ---------------------------------------------------
  free energy    TOTEN  =       -33.21895791 eV

  energy without entropy =      -33.21895791  energy(sigma->0) =      -33.21895791


--------------------------------------------------------------------------------------------------------




----------------------------------------- Iteration    1(  20)  ---------------------------------------


    POTLOK:  cpu time    6.1611: real time    6.1692
    SETDIJ:  cpu time    0.0030: real time    0.0026
     EDDAV:  cpu time    5.2112: real time    5.2337
       DOS:  cpu time    0.0000: real time    0.0002
    CHARGE:  cpu time    1.1948: real time    1.1959
    MIXING:  cpu time    0.4959: real time    0.4960
    --------------------------------------------
      LOOP:  cpu time   13.0670: real time   13.1000

 eigenvalue-minimisations  :   184
 total energy-change (2. order) :-0.1142933E-03  (-0.9990438E-06)
 number of electron      15.9999991 magnetization 
 augmentation part        0.3237822 magnetization 

 Broyden mixing:
  rms(total) = 0.25109E-03    rms(broyden)= 0.25098E-03
  rms(prec ) = 0.27256E-03
  weight for this iteration     100.00

 eigenvalues of (default mixing * dielectric matrix)
  average eigenvalue GAMMA=   2.1749
  8.3967  5.2611  2.7503  2.7503  2.2252  0.4272  1.5116  1.5116  1.3343  1.3343
  1.3692  0.9391  0.9391  0.9709  0.9023

 Free energy of the ion-electron system (eV)
  ---------------------------------------------------
  alpha Z        PSCENC =         0.04144063
  Ewald energy   TEWEN  =       579.80075934
  -Hartree energ DENC   =     -1064.14957544
  -exchange      EXHF   =         0.00000000
  -V(xc)+E(xc)   XCENC  =        52.42170271
  PAW double counting   =       919.93284333     -922.43798921
  entropy T*S    EENTRO =         0.00000000
  eigenvalues    EBANDS =      -194.99360172
  atomic energy  EATOM  =       596.16534815
  Solvation  Ediel_sol  =         0.00000000
  ---------------------------------------------------
  free energy    TOTEN  =       -33.21907220 eV

  energy without entropy =      -33.21907220  energy(sigma->0) =      -33.21907220


--------------------------------------------------------------------------------------------------------




----------------------------------------- Iteration    1(  21)  ---------------------------------------


    POTLOK:  cpu time    6.3110: real time    6.3163
    SETDIJ:  cpu time    0.0040: real time    0.0042
     EDDAV:  cpu time    4.9792: real time    5.0001
       DOS:  cpu time    0.0000: real time    0.0002
    --------------------------------------------
      LOOP:  cpu time   11.2943: real time   11.3239

 eigenvalue-minimisations  :   168
 total energy-change (2. order) :-0.5654662E-04  (-0.4598530E-06)
 number of electron      15.9999991 magnetization 
 augmentation part        0.3237822 magnetization 

 Free energy of the ion-electron system (eV)
  ---------------------------------------------------
  alpha Z        PSCENC =         0.04144063
  Ewald energy   TEWEN  =       579.80075934
  -Hartree energ DENC   =     -1064.15965414
  -exchange      EXHF   =         0.00000000
  -V(xc)+E(xc)   XCENC  =        52.42207306
  PAW double counting   =       919.99735044     -922.50268036
  entropy T*S    EENTRO =         0.00000000
  eigenvalues    EBANDS =      -194.98376587
  atomic energy  EATOM  =       596.16534815
  Solvation  Ediel_sol  =         0.00000000
  ---------------------------------------------------
  free energy    TOTEN  =       -33.21912875 eV

  energy without entropy =      -33.21912875  energy(sigma->0) =      -33.21912875


--------------------------------------------------------------------------------------------------------




 average (electrostatic) potential at core
  the test charge radii are     0.5201  0.6991  0.7089
  (the norm of the test charge is              1.0000)
       1 -43.1429       2 -43.1444       3 -43.1425       4 -60.5297       5 -61.0681
       6 -74.0695
 
 
 
 E-fermi :  -5.8046     XC(G=0):  -0.0958     alpha+bet : -0.0137


 k-point     1 :       0.0000    0.0000    0.0000
  band No.  band energies     occupation 
      1     -20.1564      2.00000
      2     -18.7134      2.00000
      3     -13.2433      2.00000
      4     -11.3395      2.00000
      5     -11.3375      2.00000
      6      -9.0771      2.00000
      7      -6.8125      2.00000
      8      -6.8121      2.00000
      9      -2.6660      0.00000
     10      -2.6650      0.00000
     11      -1.1210      0.00000
     12      -0.0488      0.00000

 k-point     2 :       0.5000    0.0000    0.0000
  band No.  band energies     occupation 
      1     -20.1564      2.00000
      2     -18.7135      2.00000
      3     -13.2433      2.00000
      4     -11.3395      2.00000
      5     -11.3375      2.00000
      6      -9.0771      2.00000
      7      -6.8125      2.00000
      8      -6.8122      2.00000
      9      -2.6660      0.00000
     10      -2.6650      0.00000
     11      -1.1210      0.00000
     12      -0.0374      0.00000

 k-point     3 :       0.0000    0.5000    0.0000
  band No.  band energies     occupation 
      1     -20.1564      2.00000
      2     -18.7135      2.00000
      3     -13.2433      2.00000
      4     -11.3395      2.00000
      5     -11.3375      2.00000
      6      -9.0771      2.00000
      7      -6.8125      2.00000
      8      -6.8122      2.00000
      9      -2.6661      0.00000
     10      -2.6650      0.00000
     11      -1.1210      0.00000
     12      -0.0159      0.00000

 k-point     4 :       0.5000    0.5000    0.0000
  band No.  band energies     occupation 
      1     -20.1564      2.00000
      2     -18.7135      2.00000
      3     -13.2433      2.00000
      4     -11.3395      2.00000
      5     -11.3375      2.00000
      6      -9.0771      2.00000
      7      -6.8124      2.00000
      8      -6.8121      2.00000
      9      -2.6660      0.00000
     10      -2.6650      0.00000
     11      -1.1209      0.00000
     12      -0.0148      0.00000

 k-point     5 :       0.0000    0.0000    0.5000
  band No.  band energies     occupation 
      1     -20.1564      2.00000
      2     -18.7135      2.00000
      3     -13.2433      2.00000
      4     -11.3395      2.00000
      5     -11.3375      2.00000
      6      -9.0771      2.00000
      7      -6.8125      2.00000
      8      -6.8121      2.00000
      9      -2.6661      0.00000
     10      -2.6650      0.00000
     11      -1.1210      0.00000
     12      -0.0160      0.00000

 k-point     6 :       0.5000    0.0000    0.5000
  band No.  band energies     occupation 
      1     -20.1564      2.00000
      2     -18.7135      2.00000
      3     -13.2433      2.00000
      4     -11.3395      2.00000
      5     -11.3375      2.00000
      6      -9.0771      2.00000
      7      -6.8125      2.00000
      8      -6.8121      2.00000
      9      -2.6660      0.00000
     10      -2.6649      0.00000
     11      -1.1209      0.00000
     12      -0.0147      0.00000

 k-point     7 :       0.0000    0.5000    0.5000
  band No.  band energies     occupation 
      1     -20.1564      2.00000
      2     -18.7134      2.00000
      3     -13.2433      2.00000
      4     -11.3395      2.00000
      5     -11.3375      2.00000
      6      -9.0770      2.00000
      7      -6.8125      2.00000
      8      -6.8122      2.00000
      9      -2.6659      0.00000
     10      -2.6649      0.00000
     11      -1.1209      0.00000
     12       0.0085      0.00000

 k-point     8 :       0.5000    0.5000    0.5000
  band No.  band energies     occupation 
      1     -20.1564      2.00000
      2     -18.7135      2.00000
      3     -13.2433      2.00000
      4     -11.3395      2.00000
      5     -11.3375      2.00000
      6      -9.0771      2.00000
      7      -6.8124      2.00000
      8      -6.8121      2.00000
      9      -2.6660      0.00000
     10      -2.6649      0.00000
     11      -1.1209      0.00000
     12       0.0008      0.00000


--------------------------------------------------------------------------------------------------------


 soft charge-density along one line, spin component           1
         0         1         2         3         4         5         6         7         8         9
 total charge-density along one line
 
 pseudopotential strength for first ion, spin component:           1
 -2.366  -4.080  -0.002   0.000  -0.001
 -4.080  -6.952  -0.005   0.001  -0.002
 -0.002  -0.005  -0.332  -0.001   0.001
  0.000   0.001  -0.001  -0.335   0.000
 -0.001  -0.002   0.001   0.000  -0.335
 total augmentation occupancy for first ion, spin component:           1
  3.298  -0.596   0.358  -0.096   0.133
 -0.596   0.122  -0.067   0.018  -0.025
  0.358  -0.067   0.040  -0.009   0.013
 -0.096   0.018  -0.009   0.009  -0.003
  0.133  -0.025   0.013  -0.003   0.011


------------------------ aborting loop because EDIFF is reached ----------------------------------------


    CHARGE:  cpu time    1.1888: real time    1.1933
    FORLOC:  cpu time    0.8719: real time    0.8737
    FORNL :  cpu time    0.7329: real time    0.7389
    STRESS:  cpu time    2.9256: real time    2.9430
    FORCOR:  cpu time    7.2119: real time    7.2208
    FORHAR:  cpu time    2.4906: real time    2.4930
    MIXING:  cpu time    0.5319: real time    0.5324
    OFIELD:  cpu time    0.0000: real time    0.0000

  FORCE on cell =-STRESS in cart. coord.  units (eV):
  Direction    XX          YY          ZZ          XY          YZ          ZX
  --------------------------------------------------------------------------------------
  Alpha Z     0.04144     0.04144     0.04144
  Ewald     513.59033    33.09853    33.11199    -2.26168    -0.01054    -0.00492
  Hartree   552.44441   255.85982   255.85175    -1.28256    -0.00258    -0.00684
  E(xc)     -56.40959   -57.65297   -57.65282    -0.00719    -0.00002     0.00000
  Local   -1224.98823  -457.65865  -457.65444     3.43073     0.01145     0.01349
  n-local   -19.98155   -19.76763   -19.77118    -0.00710     0.00329     0.00069
  augment     0.38016     0.43784     0.43801     0.00402    -0.00004     0.00023
  Kinetic   210.90832   243.07437   243.07321     0.29207     0.00073     0.00127
  Fock        0.00000     0.00000     0.00000     0.00000     0.00000     0.00000
  -------------------------------------------------------------------------------------
  Total     -24.01470    -2.56726    -2.56205     0.16830     0.00229     0.00390
  in kB      -1.42503    -0.15234    -0.15203     0.00999     0.00014     0.00023
  external pressure =       -0.58 kB  Pullay stress =        0.00 kB


 VOLUME and BASIS-vectors are now :
 -----------------------------------------------------------------------------
  energy-cutoff  :      400.00
  volume of cell :    27000.00
      direct lattice vectors                 reciprocal lattice vectors
    30.000000000  0.000000000  0.000000000     0.033333333  0.000000000  0.000000000
     0.000000000 30.000000000  0.000000000     0.000000000  0.033333333  0.000000000
     0.000000000  0.000000000 30.000000000     0.000000000  0.000000000  0.033333333

  length of vectors
    30.000000000 30.000000000 30.000000000     0.033333333  0.033333333  0.033333333


 FORCES acting on ions
    electron-ion (+dipol)            ewald-force                    non-local-force                 convergence-correction
 -----------------------------------------------------------------------------------------------
   0.294E+02 0.511E+02 -.137E+02   -.307E+02 -.547E+02 0.147E+02   0.170E+01 0.460E+01 -.123E+01   0.514E-04 0.165E-03 -.441E-04
   0.294E+02 -.137E+02 0.512E+02   -.307E+02 0.147E+02 -.548E+02   0.170E+01 -.123E+01 0.460E+01   0.514E-04 -.456E-04 0.166E-03
   0.294E+02 -.375E+02 -.375E+02   -.307E+02 0.401E+02 0.401E+02   0.170E+01 -.337E+01 -.337E+01   0.509E-04 -.122E-03 -.120E-03
   0.841E+02 -.136E+00 -.365E-02   -.881E+02 0.132E+00 0.588E-02   0.463E+01 0.569E-02 0.614E-02   0.100E-04 -.516E-05 0.212E-05
   0.233E+01 -.115E+01 0.174E-02   0.649E+01 0.110E+01 -.225E-02   0.284E+01 -.881E-01 0.110E-02   0.681E-03 -.129E-04 -.195E-05
   -.155E+03 0.113E+01 0.930E-03   0.174E+03 -.129E+01 -.891E-03   -.324E+02 0.284E+00 0.412E-02   0.119E-03 -.130E-04 -.197E-05
 -----------------------------------------------------------------------------------------------
   0.198E+02 -.208E+00 -.669E-02   0.000E+00 -.488E-14 0.866E-14   -.198E+02 0.200E+00 0.120E-01   0.964E-03 -.340E-04 -.401E-06
 
 
 POSITION                                       TOTAL-FORCE (eV/Angst)
 -----------------------------------------------------------------------------------
     12.67890     15.03300     15.23040         0.378695      1.027770     -0.277135
     12.67890     16.34940     13.91400         0.373179     -0.271319      1.020215
     12.67890     16.83120     15.71220         0.374444     -0.748841     -0.753570
     13.05900     16.07130     14.95200         0.583908      0.003242      0.007499
     14.56890     16.07130     14.95200        11.665597     -0.128817     -0.000287
     16.07880     16.05810     14.95200       -13.375823      0.117966      0.003278
 -----------------------------------------------------------------------------------
    total drift:                                0.006198     -0.008276      0.005272


--------------------------------------------------------------------------------------------------------



  FREE ENERGIE OF THE ION-ELECTRON SYSTEM (eV)
  ---------------------------------------------------
  free  energy   TOTEN  =       -33.21912875 eV

  energy  without entropy=      -33.21912875  energy(sigma->0) =      -33.21912875
 


--------------------------------------------------------------------------------------------------------


    POTLOK:  cpu time    6.5060: real time    6.5153


--------------------------------------------------------------------------------------------------------




--------------------------------------------------------------------------------------------------------


    WAVPRE:  cpu time    2.2307: real time    2.2340
 FEWALD executed in parallel
    FEWALD:  cpu time    0.0000: real time    0.0002
    ORTHCH:  cpu time    1.0638: real time    1.1642
     LOOP+:  cpu time  300.5873: real time  304.4342


----------------------------------------- Iteration    2(   1)  ---------------------------------------


    POTLOK:  cpu time    6.1651: real time    6.1710
    SETDIJ:  cpu time    0.0020: real time    0.0025
     EDDAV:  cpu time    6.1691: real time    6.1958
       DOS:  cpu time    0.0000: real time    0.0001
    CHARGE:  cpu time    1.1898: real time    1.1910
    MIXING:  cpu time    0.2070: real time    0.2080
    --------------------------------------------
      LOOP:  cpu time   13.7329: real time   13.7699

 eigenvalue-minimisations  :   256
 total energy-change (2. order) : 0.4436111E+03  (-0.2540339E+03)
 number of electron      15.9999958 magnetization 
 augmentation part        1.1487187 magnetization 

 Broyden mixing:
  rms(total) = 0.27806E+02    rms(broyden)= 0.27806E+02
  rms(prec ) = 0.27809E+02
  weight for this iteration     100.00

 Free energy of the ion-electron system (eV)
  ---------------------------------------------------
  alpha Z        PSCENC =         0.04144063
  Ewald energy   TEWEN  =      1325.09160065
  -Hartree energ DENC   =     -1188.86531716
  -exchange      EXHF   =         0.00000000
  -V(xc)+E(xc)   XCENC  =        56.62319682
  PAW double counting   =       919.97990665     -922.48523795
  entropy T*S    EENTRO =         0.00000000
  eigenvalues    EBANDS =      -376.15890936
  atomic energy  EATOM  =       596.16534815
  Solvation  Ediel_sol  =         0.00000000
  ---------------------------------------------------
  free energy    TOTEN  =       410.39202843 eV

  energy without entropy =      410.39202843  energy(sigma->0) =      410.39202843


--------------------------------------------------------------------------------------------------------




----------------------------------------- Iteration    2(   2)  ---------------------------------------


    POTLOK:  cpu time    6.1911: real time    6.2025
    SETDIJ:  cpu time    0.0020: real time    0.0025
     EDDAV:  cpu time    6.2600: real time    6.2873
       DOS:  cpu time    0.0010: real time    0.0001
[...]
 augmentation part        0.4291126 magnetization 

 Broyden mixing:
  rms(total) = 0.26151E-02    rms(broyden)= 0.26107E-02
  rms(prec ) = 0.26533E-02
  weight for this iteration     100.00

 eigenvalues of (default mixing * dielectric matrix)
  average eigenvalue GAMMA=   1.1968
  1.1968

 Free energy of the ion-electron system (eV)
  ---------------------------------------------------
  alpha Z        PSCENC =         0.04144063
  Ewald energy   TEWEN  =       665.43595079
  -Hartree energ DENC   =     -1146.96129565
  -exchange      EXHF   =         0.00000000
  -V(xc)+E(xc)   XCENC  =        54.65586712
  PAW double counting   =      1335.91722342    -1338.69479643
  entropy T*S    EENTRO =         0.00000000
  eigenvalues    EBANDS =      -203.18685614
  atomic energy  EATOM  =       596.16534815
  Solvation  Ediel_sol  =         0.00000000
  ---------------------------------------------------
  free energy    TOTEN  =       -36.62711811 eV

  energy without entropy =      -36.62711811  energy(sigma->0) =      -36.62711811


--------------------------------------------------------------------------------------------------------




----------------------------------------- Iteration   19(   3)  ---------------------------------------


    POTLOK:  cpu time    6.5190: real time    6.5337
    SETDIJ:  cpu time    0.0030: real time    0.0029
     EDDAV:  cpu time    4.5463: real time    4.5720
       DOS:  cpu time    0.0000: real time    0.0001
    CHARGE:  cpu time    1.2088: real time    1.2120
    MIXING:  cpu time    0.2300: real time    0.2301
    --------------------------------------------
      LOOP:  cpu time   12.5091: real time   12.5536

 eigenvalue-minimisations  :   144
 total energy-change (2. order) : 0.2694708E-05  (-0.2085849E-05)
 number of electron      15.9999995 magnetization 
 augmentation part        0.4290471 magnetization 

 Broyden mixing:
  rms(total) = 0.13052E-02    rms(broyden)= 0.13049E-02
  rms(prec ) = 0.13213E-02
  weight for this iteration     100.00

 eigenvalues of (default mixing * dielectric matrix)
  average eigenvalue GAMMA=   1.5475
  0.9069  2.1882

 Free energy of the ion-electron system (eV)
  ---------------------------------------------------
  alpha Z        PSCENC =         0.04144063
  Ewald energy   TEWEN  =       665.43595079
  -Hartree energ DENC   =     -1146.95791425
  -exchange      EXHF   =         0.00000000
  -V(xc)+E(xc)   XCENC  =        54.65573839
  PAW double counting   =      1335.74583951    -1338.52327067
  entropy T*S    EENTRO =         0.00000000
  eigenvalues    EBANDS =      -203.19024796
  atomic energy  EATOM  =       596.16534815
  Solvation  Ediel_sol  =         0.00000000
  ---------------------------------------------------
  free energy    TOTEN  =       -36.62711541 eV

  energy without entropy =      -36.62711541  energy(sigma->0) =      -36.62711541


--------------------------------------------------------------------------------------------------------




----------------------------------------- Iteration   19(   4)  ---------------------------------------


    POTLOK:  cpu time    6.4430: real time    6.4478
    SETDIJ:  cpu time    0.0030: real time    0.0031
     EDDAV:  cpu time    4.5463: real time    4.5678
       DOS:  cpu time    0.0000: real time    0.0001
    CHARGE:  cpu time    1.2048: real time    1.2069
    MIXING:  cpu time    0.2420: real time    0.2422
    --------------------------------------------
      LOOP:  cpu time   12.4391: real time   12.4726

 eigenvalue-minimisations  :   144
 total energy-change (2. order) :-0.2468610E-05  (-0.8237234E-06)
 number of electron      15.9999995 magnetization 
 augmentation part        0.4290552 magnetization 

 Broyden mixing:
  rms(total) = 0.27766E-03    rms(broyden)= 0.27751E-03
  rms(prec ) = 0.28493E-03
  weight for this iteration     100.00

 eigenvalues of (default mixing * dielectric matrix)
  average eigenvalue GAMMA=   1.4702
  2.2013  1.0083  1.2011

 Free energy of the ion-electron system (eV)
  ---------------------------------------------------
  alpha Z        PSCENC =         0.04144063
  Ewald energy   TEWEN  =       665.43595079
  -Hartree energ DENC   =     -1146.95135840
  -exchange      EXHF   =         0.00000000
  -V(xc)+E(xc)   XCENC  =        54.65540562
  PAW double counting   =      1335.49020338    -1338.26735300
  entropy T*S    EENTRO =         0.00000000
  eigenvalues    EBANDS =      -203.19675504
  atomic energy  EATOM  =       596.16534815
  Solvation  Ediel_sol  =         0.00000000
  ---------------------------------------------------
  free energy    TOTEN  =       -36.62711788 eV

  energy without entropy =      -36.62711788  energy(sigma->0) =      -36.62711788


--------------------------------------------------------------------------------------------------------




----------------------------------------- Iteration   19(   5)  ---------------------------------------


    POTLOK:  cpu time    6.4410: real time    6.4481
    SETDIJ:  cpu time    0.0030: real time    0.0025
     EDDAV:  cpu time    4.2883: real time    4.3097
       DOS:  cpu time    0.0000: real time    0.0001
    CHARGE:  cpu time    1.1898: real time    1.1923
    MIXING:  cpu time    0.2510: real time    0.2511
    --------------------------------------------
      LOOP:  cpu time   12.1741: real time   12.2472

 eigenvalue-minimisations  :   132
 total energy-change (2. order) :-0.1373498E-06  (-0.1194539E-06)
 number of electron      15.9999995 magnetization 
 augmentation part        0.4290624 magnetization 

 Broyden mixing:
  rms(total) = 0.12911E-03    rms(broyden)= 0.12906E-03
  rms(prec ) = 0.13308E-03
  weight for this iteration     100.00

 eigenvalues of (default mixing * dielectric matrix)
  average eigenvalue GAMMA=   1.5430
  0.9785  0.9785  2.1075  2.1075

 Free energy of the ion-electron system (eV)
  ---------------------------------------------------
  alpha Z        PSCENC =         0.04144063
  Ewald energy   TEWEN  =       665.43595079
  -Hartree energ DENC   =     -1146.95229446
  -exchange      EXHF   =         0.00000000
  -V(xc)+E(xc)   XCENC  =        54.65544962
  PAW double counting   =      1335.44961237    -1338.22672686
  entropy T*S    EENTRO =         0.00000000
  eigenvalues    EBANDS =      -203.19589826
  atomic energy  EATOM  =       596.16534815
  Solvation  Ediel_sol  =         0.00000000
  ---------------------------------------------------
  free energy    TOTEN  =       -36.62711802 eV

  energy without entropy =      -36.62711802  energy(sigma->0) =      -36.62711802


--------------------------------------------------------------------------------------------------------




----------------------------------------- Iteration   19(   6)  ---------------------------------------


    POTLOK:  cpu time    6.5440: real time    6.5562
    SETDIJ:  cpu time    0.0030: real time    0.0026
     EDDAV:  cpu time    4.3533: real time    4.3756
       DOS:  cpu time    0.0010: real time    0.0002
    --------------------------------------------
      LOOP:  cpu time   10.9023: real time   10.9372

 eigenvalue-minimisations  :   136
 total energy-change (2. order) :-0.1469184E-06  (-0.4651952E-07)
 number of electron      15.9999995 magnetization 
 augmentation part        0.4290624 magnetization 

 Free energy of the ion-electron system (eV)
  ---------------------------------------------------
  alpha Z        PSCENC =         0.04144063
  Ewald energy   TEWEN  =       665.43595079
  -Hartree energ DENC   =     -1146.95305921
  -exchange      EXHF   =         0.00000000
  -V(xc)+E(xc)   XCENC  =        54.65551211
  PAW double counting   =      1335.44529848    -1338.22239499
  entropy T*S    EENTRO =         0.00000000
  eigenvalues    EBANDS =      -203.19521412
  atomic energy  EATOM  =       596.16534815
  Solvation  Ediel_sol  =         0.00000000
  ---------------------------------------------------
  free energy    TOTEN  =       -36.62711817 eV

  energy without entropy =      -36.62711817  energy(sigma->0) =      -36.62711817


--------------------------------------------------------------------------------------------------------




 average (electrostatic) potential at core
  the test charge radii are     0.5201  0.6991  0.7089
  (the norm of the test charge is              1.0000)
       1 -42.9061       2 -42.9096       3 -42.9084       4 -60.2307       5 -60.0685
       6 -73.2205
 
 
 
 E-fermi :  -7.0552     XC(G=0):  -0.0575     alpha+bet : -0.0137


 k-point     1 :       0.0000    0.0000    0.0000
  band No.  band energies     occupation 
      1     -22.5161      2.00000
      2     -19.2072      2.00000
      3     -12.6430      2.00000
      4     -11.3350      2.00000
      5     -11.3331      2.00000
      6      -8.4887      2.00000
      7      -8.0382      2.00000
      8      -8.0363      2.00000
      9      -0.9033      0.00000
     10      -0.5520      0.00000
     11      -0.5479      0.00000
     12      -0.0017      0.00000

 k-point     2 :       0.5000    0.0000    0.0000
  band No.  band energies     occupation 
      1     -22.5161      2.00000
      2     -19.2072      2.00000
      3     -12.6430      2.00000
      4     -11.3350      2.00000
      5     -11.3331      2.00000
      6      -8.4887      2.00000
      7      -8.0382      2.00000
      8      -8.0363      2.00000
      9      -0.9033      0.00000
     10      -0.5521      0.00000
     11      -0.5480      0.00000
     12       0.0206      0.00000

 k-point     3 :       0.0000    0.5000    0.0000
  band No.  band energies     occupation 
      1     -22.5161      2.00000
      2     -19.2072      2.00000
      3     -12.6430      2.00000
      4     -11.3350      2.00000
      5     -11.3331      2.00000
      6      -8.4887      2.00000
      7      -8.0382      2.00000
      8      -8.0364      2.00000
      9      -0.9033      0.00000
     10      -0.5521      0.00000
     11      -0.5480      0.00000
     12       0.0230      0.00000

 k-point     4 :       0.5000    0.5000    0.0000
  band No.  band energies     occupation 
      1     -22.5161      2.00000
      2     -19.2072      2.00000
      3     -12.6430      2.00000
      4     -11.3350      2.00000
      5     -11.3331      2.00000
      6      -8.4886      2.00000
      7      -8.0382      2.00000
      8      -8.0363      2.00000
      9      -0.9033      0.00000
     10      -0.5520      0.00000
     11      -0.5479      0.00000
     12       0.0483      0.00000

 k-point     5 :       0.0000    0.0000    0.5000
  band No.  band energies     occupation 
      1     -22.5161      2.00000
      2     -19.2072      2.00000
      3     -12.6430      2.00000
      4     -11.3350      2.00000
      5     -11.3331      2.00000
      6      -8.4887      2.00000
      7      -8.0383      2.00000
      8      -8.0363      2.00000
      9      -0.9033      0.00000
     10      -0.5521      0.00000
     11      -0.5480      0.00000
     12       0.0228      0.00000

 k-point     6 :       0.5000    0.0000    0.5000
  band No.  band energies     occupation 
      1     -22.5161      2.00000
      2     -19.2072      2.00000
      3     -12.6430      2.00000
      4     -11.3350      2.00000
      5     -11.3331      2.00000
      6      -8.4886      2.00000
      7      -8.0382      2.00000
      8      -8.0363      2.00000
      9      -0.9033      0.00000
     10      -0.5520      0.00000
     11      -0.5479      0.00000
     12       0.0480      0.00000

 k-point     7 :       0.0000    0.5000    0.5000
  band No.  band energies     occupation 
      1     -22.5161      2.00000
      2     -19.2072      2.00000
      3     -12.6430      2.00000
      4     -11.3350      2.00000
      5     -11.3331      2.00000
      6      -8.4886      2.00000
      7      -8.0382      2.00000
      8      -8.0363      2.00000
      9      -0.9033      0.00000
     10      -0.5520      0.00000
     11      -0.5479      0.00000
     12       0.0536      0.00000

 k-point     8 :       0.5000    0.5000    0.5000
  band No.  band energies     occupation 
      1     -22.5161      2.00000
      2     -19.2072      2.00000
      3     -12.6430      2.00000
      4     -11.3350      2.00000
      5     -11.3331      2.00000
      6      -8.4886      2.00000
      7      -8.0382      2.00000
      8      -8.0363      2.00000
      9      -0.9033      0.00000
     10      -0.5520      0.00000
     11      -0.5479      0.00000
     12       0.0735      0.00000


--------------------------------------------------------------------------------------------------------


 soft charge-density along one line, spin component           1
         0         1         2         3         4         5         6         7         8         9
 total charge-density along one line
 
 pseudopotential strength for first ion, spin component:           1
 -2.362  -4.074  -0.002   0.000  -0.001
 -4.074  -6.940  -0.004   0.001  -0.002
 -0.002  -0.004  -0.332  -0.001   0.001
  0.000   0.001  -0.001  -0.336   0.000
 -0.001  -0.002   0.001   0.000  -0.335
 total augmentation occupancy for first ion, spin component:           1
  3.320  -0.600   0.358  -0.096   0.133
 -0.600   0.123  -0.066   0.018  -0.025
  0.358  -0.066   0.040  -0.009   0.012
 -0.096   0.018  -0.009   0.009  -0.003
  0.133  -0.025   0.012  -0.003   0.011


------------------------ aborting loop because EDIFF is reached ----------------------------------------


    CHARGE:  cpu time    1.1998: real time    1.2020
    FORLOC:  cpu time    0.8739: real time    0.8764
    FORNL :  cpu time    0.7309: real time    0.7364
    STRESS:  cpu time    2.9136: real time    2.9298
    FORCOR:  cpu time    7.2089: real time    7.2244
    FORHAR:  cpu time    2.4936: real time    2.5010
    MIXING:  cpu time    0.2750: real time    0.2761
    OFIELD:  cpu time    0.0000: real time    0.0000

  FORCE on cell =-STRESS in cart. coord.  units (eV):
  Direction    XX          YY          ZZ          XY          YZ          ZX
  --------------------------------------------------------------------------------------
  Alpha Z     0.04144     0.04144     0.04144
  Ewald     595.51279    34.96386    34.95917    -2.07001    -0.02369     0.11167
  Hartree   583.02337   281.97463   281.95416    -1.04427    -0.01051     0.05037
  E(xc)     -58.63527   -59.97802   -59.97798    -0.00585    -0.00008     0.00032
  Local   -1320.96899  -490.36768  -490.32898     2.98174     0.03359    -0.15220
  n-local   -27.62570   -24.01735   -24.02110     0.01231     0.00407    -0.00183
  augment     0.41859     0.40966     0.40965     0.00024    -0.00015     0.00023
  Kinetic   227.02204   254.21097   254.20533     0.14157    -0.00008    -0.00691
  Fock        0.00000     0.00000     0.00000     0.00000     0.00000     0.00000
  -------------------------------------------------------------------------------------
  Total      -1.21173    -2.76249    -2.75831     0.01573     0.00315     0.00165
  in kB      -0.07190    -0.16393    -0.16368     0.00093     0.00019     0.00010
  external pressure =       -0.13 kB  Pullay stress =        0.00 kB


 VOLUME and BASIS-vectors are now :
 -----------------------------------------------------------------------------
  energy-cutoff  :      400.00
  volume of cell :    27000.00
      direct lattice vectors                 reciprocal lattice vectors
    30.000000000  0.000000000  0.000000000     0.033333333  0.000000000  0.000000000
     0.000000000 30.000000000  0.000000000     0.000000000  0.033333333  0.000000000
     0.000000000  0.000000000 30.000000000     0.000000000  0.000000000  0.033333333

  length of vectors
    30.000000000 30.000000000 30.000000000     0.033333333  0.033333333  0.033333333


 FORCES acting on ions
    electron-ion (+dipol)            ewald-force                    non-local-force                 convergence-correction
 -----------------------------------------------------------------------------------------------
   0.310E+02 0.523E+02 -.140E+02   -.325E+02 -.558E+02 0.150E+02   0.169E+01 0.459E+01 -.123E+01   -.286E-04 -.807E-04 0.220E-04
   0.310E+02 -.141E+02 0.523E+02   -.324E+02 0.150E+02 -.558E+02   0.170E+01 -.123E+01 0.459E+01   -.302E-04 0.211E-04 -.797E-04
   0.310E+02 -.383E+02 -.383E+02   -.324E+02 0.409E+02 0.409E+02   0.170E+01 -.336E+01 -.336E+01   -.301E-04 0.579E-04 0.587E-04
   0.101E+03 -.487E+00 0.198E-01   -.107E+03 0.505E+00 -.184E-01   0.435E+01 -.385E-01 0.751E-02   0.219E-03 -.338E-05 0.259E-05
   0.672E+02 -.343E+00 0.340E-01   -.693E+02 0.363E+00 -.351E-01   0.211E+01 -.102E-01 0.437E-02   0.587E-04 -.138E-04 0.102E-04
   -.233E+03 0.828E+00 -.503E-01   0.273E+03 -.977E+00 0.610E-01   -.405E+02 0.141E+00 -.630E-02   -.112E-02 -.312E-04 0.192E-04
 -----------------------------------------------------------------------------------------------
   0.290E+02 -.104E+00 0.249E-02   0.000E+00 -.844E-14 0.113E-13   -.290E+02 0.908E-01 0.616E-02   -.934E-03 -.501E-04 0.329E-04
 
 
 POSITION                                       TOTAL-FORCE (eV/Angst)
 -----------------------------------------------------------------------------------
     12.67890     15.03300     15.23040         0.278026      1.114273     -0.300950
     12.67890     16.34940     13.91400         0.289800     -0.293923      1.103371
     12.67890     16.83120     15.71220         0.296475     -0.809502     -0.814682
     13.05900     16.07130     14.95200        -0.865393     -0.018288      0.007411
     14.51148     16.06645     14.95222        -0.002915      0.012922      0.001872
     15.67838     16.06215     14.95250         0.004007     -0.005482      0.002978
 -----------------------------------------------------------------------------------
    total drift:                               -0.004533     -0.013518      0.008682


--------------------------------------------------------------------------------------------------------



  FREE ENERGIE OF THE ION-ELECTRON SYSTEM (eV)
  ---------------------------------------------------
  free  energy   TOTEN  =       -36.62711817 eV

  energy  without entropy=      -36.62711817  energy(sigma->0) =      -36.62711817
 
 d Force = 0.1978814E-03[ 0.874E-06, 0.395E-03]  d Energy = 0.2024050E-03-0.452E-05
 d Force =-0.9308090E-01[-0.939E-01,-0.923E-01]  d Ewald  =-0.9308076E-01-0.140E-06


--------------------------------------------------------------------------------------------------------


    POTLOK:  cpu time    6.8980: real time    6.9248


--------------------------------------------------------------------------------------------------------




--------------------------------------------------------------------------------------------------------


  
 reached required accuracy - stopping structural energy minimisation
 writing wavefunctions
     LOOP+:  cpu time   98.3410: real time  102.2620
    4ORBIT:  cpu time    0.0000: real time    0.0000

 total amount of memory used by VASP on root node  1880339. kBytes
========================================================================

   base      :      30000. kBytes
   nonlr-proj:        693. kBytes
   fftplans  :     469080. kBytes
   grid      :    1003680. kBytes
   one-center:         18. kBytes
   wavefun   :     376868. kBytes
 
  
  
 General timing and accounting informations for this job:
 ========================================================
  
                  Total CPU time used (sec):     2977.646
                            User time (sec):     2461.150
                          System time (sec):      516.496
                         Elapsed time (sec):     3007.001
  
                   Maximum memory used (kb):     3439256.
                   Average memory used (kb):           0.
  
                          Minor page faults:     32507681
                          Major page faults:            6
                 Voluntary context switches:        93853
