   6   6   0   0
  0.4500000E+04  0.3000000E-08  0.3000000E-08  0.3000000E-08  0.0000000E+00
  1.000000000000000E-004
  CAR 
 unknown system                          
      2.02408386    -25.89045652  301     -6.16381785      1.00000000
    -25.890  0.0000E+00  0.0000E+00
    -25.797  0.0000E+00  0.0000E+00
    -25.704  0.0000E+00  0.0000E+00
    -25.611  0.0000E+00  0.0000E+00
    -25.518  0.0000E+00  0.0000E+00
    -25.425  0.0000E+00  0.0000E+00
    -25.332  0.0000E+00  0.0000E+00
    -25.239  0.0000E+00  0.0000E+00
    -25.146  0.0000E+00  0.0000E+00
    -25.053  0.7954E-17  0.7401E-18
    -24.960  0.1408E-14  0.1317E-15
    -24.867  0.1789E-12  0.1677E-13
    -24.774  0.1484E-10  0.1397E-11
    -24.681  0.8043E-09  0.7623E-10
    -24.588  0.2852E-07  0.2730E-08
    -24.495  0.6620E-06  0.6433E-07
    -24.402  0.1007E-04  0.1002E-05
    -24.309  0.1005E-03  0.1036E-04
    -24.216  0.6591E-03  0.7168E-04
    -24.123  0.2840E-02  0.3360E-03
    -24.029  0.8052E-02  0.1085E-02
    -23.936  0.1503E-01  0.2484E-02
    -23.843  0.1847E-01  0.4202E-02
    -23.750  0.1496E-01  0.5594E-02
    -23.657  0.7974E-02  0.6336E-02
    -23.564  0.2799E-02  0.6596E-02
    -23.471  0.6464E-03  0.6657E-02
    -23.378  0.9812E-04  0.6666E-02
    -23.285  0.9782E-05  0.6667E-02
    -23.192  0.6398E-06  0.6667E-02
    -23.099  0.2742E-07  0.6667E-02
    -23.006  0.7696E-09  0.6667E-02
    -22.913  0.1413E-10  0.6667E-02
    -22.820  0.1695E-12  0.6667E-02
    -22.727  0.1328E-14  0.6667E-02
    -22.634  0.7954E-17  0.6667E-02
    -22.541  0.0000E+00  0.6667E-02
    -22.448  0.0000E+00  0.6667E-02
    -22.355  0.0000E+00  0.6667E-02
    -22.262  0.0000E+00  0.6667E-02
    -22.169  0.0000E+00  0.6667E-02
    -22.075  0.0000E+00  0.6667E-02
    -21.982  0.0000E+00  0.6667E-02
    -21.889  0.0000E+00  0.6667E-02
    -21.796  0.0000E+00  0.6667E-02
    -21.703  0.0000E+00  0.6667E-02
    -21.610  0.0000E+00  0.6667E-02
    -21.517  0.0000E+00  0.6667E-02
    -21.424  0.0000E+00  0.6667E-02
    -21.331  0.0000E+00  0.6667E-02
    -21.238  0.0000E+00  0.6667E-02
    -21.145  0.0000E+00  0.6667E-02
    -21.052  0.0000E+00  0.6667E-02
    -20.959  0.0000E+00  0.6667E-02
    -20.866  0.0000E+00  0.6667E-02
    -20.773  0.0000E+00  0.6667E-02
    -20.680  0.0000E+00  0.6667E-02
    -20.587  0.0000E+00  0.6667E-02
    -20.494  0.0000E+00  0.6667E-02
    -20.401  0.2506E-15  0.6667E-02
    -20.308  0.3636E-13  0.6667E-02
    -20.214  0.3485E-11  0.6667E-02
    -20.121  0.2182E-09  0.6667E-02
    -20.028  0.8930E-08  0.6667E-02
    -19.935  0.2393E-06  0.6667E-02
    -19.842  0.4200E-05  0.6667E-02
    -19.749  0.4835E-04  0.6672E-02
    -19.656  0.3654E-03  0.6706E-02
    -19.563  0.1815E-02  0.6874E-02
    -19.470  0.5929E-02  0.7426E-02
    -19.377  0.1275E-01  0.8612E-02
    -19.284  0.1805E-01  0.1029E-01
    -19.191  0.1683E-01  0.1186E-01
    -19.098  0.1034E-01  0.1282E-01
    -19.005  0.4182E-02  0.1321E-01
    -18.912  0.1113E-02  0.1331E-01
    -18.819  0.1947E-03  0.1333E-01
    -18.726  0.2239E-04  0.1333E-01
    -18.633  0.1689E-05  0.1333E-01
    -18.540  0.8355E-07  0.1333E-01
    -18.447  0.2707E-08  0.1333E-01
    -18.354  0.5738E-10  0.1333E-01
    -18.260  0.7950E-12  0.1333E-01
    -18.167  0.7191E-14  0.1333E-01
    -18.074  0.4773E-16  0.1333E-01
    -17.981  0.0000E+00  0.1333E-01
    -17.888  0.0000E+00  0.1333E-01
    -17.795  0.0000E+00  0.1333E-01
    -17.702  0.0000E+00  0.1333E-01
    -17.609  0.0000E+00  0.1333E-01
    -17.516  0.0000E+00  0.1333E-01
    -17.423  0.0000E+00  0.1333E-01
    -17.330  0.0000E+00  0.1333E-01
    -17.237  0.0000E+00  0.1333E-01
    -17.144  0.0000E+00  0.1333E-01
    -17.051  0.0000E+00  0.1333E-01
    -16.958  0.0000E+00  0.1333E-01
    -16.865  0.0000E+00  0.1333E-01
    -16.772  0.0000E+00  0.1333E-01
    -16.679  0.0000E+00  0.1333E-01
    -16.586  0.0000E+00  0.1333E-01
    -16.493  0.0000E+00  0.1333E-01
    -16.400  0.0000E+00  0.1333E-01
    -16.306  0.0000E+00  0.1333E-01
    -16.213  0.0000E+00  0.1333E-01
    -16.120  0.0000E+00  0.1333E-01
    -16.027  0.0000E+00  0.1333E-01
    -15.934  0.0000E+00  0.1333E-01
    -15.841  0.0000E+00  0.1333E-01
    -15.748  0.0000E+00  0.1333E-01
    -15.655  0.0000E+00  0.1333E-01
    -15.562  0.0000E+00  0.1333E-01
    -15.469  0.0000E+00  0.1333E-01
    -15.376  0.0000E+00  0.1333E-01
    -15.283  0.0000E+00  0.1333E-01
    -15.190  0.0000E+00  0.1333E-01
    -15.097  0.0000E+00  0.1333E-01
    -15.004  0.8352E-16  0.1333E-01
    -14.911  0.1312E-13  0.1333E-01
    -14.818  0.1376E-11  0.1333E-01
    -14.725  0.9423E-10  0.1333E-01
    -14.632  0.4220E-08  0.1333E-01
    -14.539  0.1236E-06  0.1333E-01
    -14.445  0.2373E-05  0.1333E-01
    -14.352  0.2987E-04  0.1334E-01
    -14.259  0.2467E-03  0.1336E-01
    -14.166  0.1339E-02  0.1348E-01
    -14.073  0.4780E-02  0.1393E-01
    -13.980  0.1123E-01  0.1497E-01
    -13.887  0.1736E-01  0.1659E-01
    -13.794  0.1769E-01  0.1824E-01
    -13.701  0.1187E-01  0.1934E-01
    -13.608  0.5244E-02  0.1983E-01
    -13.515  0.1525E-02  0.1997E-01
    -13.422  0.2916E-03  0.2000E-01
    -13.329  0.3664E-04  0.2000E-01
    -13.236  0.3022E-05  0.2000E-01
    -13.143  0.1635E-06  0.2000E-01
    -13.050  0.5792E-08  0.2000E-01
    -12.957  0.1343E-09  0.2000E-01
    -12.864  0.2040E-11  0.2000E-01
    -12.771  0.4667E-12  0.2000E-01
    -12.678  0.3629E-10  0.2000E-01
    -12.585  0.1927E-08  0.2000E-01
    -12.491  0.6696E-07  0.2000E-01
    -12.398  0.1523E-05  0.2000E-01
    -12.305  0.2271E-04  0.2000E-01
    -12.212  0.2222E-03  0.2002E-01
    -12.119  0.1427E-02  0.2016E-01
    -12.026  0.6029E-02  0.2072E-01
    -11.933  0.1675E-01  0.2228E-01
    -11.840  0.3065E-01  0.2513E-01
    -11.747  0.3692E-01  0.2856E-01
    -11.654  0.2930E-01  0.3129E-01
    -11.561  0.1531E-01  0.3271E-01
    -11.468  0.5268E-02  0.3320E-01
    -11.375  0.1192E-02  0.3332E-01
    -11.282  0.1774E-03  0.3333E-01
    -11.189  0.1733E-04  0.3333E-01
    -11.096  0.1111E-05  0.3333E-01
    -11.003  0.4666E-07  0.3333E-01
    -10.910  0.1283E-08  0.3333E-01
    -10.817  0.2308E-10  0.3333E-01
    -10.724  0.2712E-12  0.3333E-01
    -10.631  0.2092E-14  0.3333E-01
    -10.537  0.0000E+00  0.3333E-01
    -10.444  0.0000E+00  0.3333E-01
    -10.351  0.0000E+00  0.3333E-01
    -10.258  0.0000E+00  0.3333E-01
    -10.165  0.0000E+00  0.3333E-01
    -10.072  0.0000E+00  0.3333E-01
     -9.979  0.0000E+00  0.3333E-01
     -9.886  0.0000E+00  0.3333E-01
     -9.793  0.0000E+00  0.3333E-01
     -9.700  0.0000E+00  0.3333E-01
     -9.607  0.0000E+00  0.3333E-01
     -9.514  0.0000E+00  0.3333E-01
     -9.421  0.1869E-15  0.3333E-01
     -9.328  0.2961E-13  0.3333E-01
     -9.235  0.3073E-11  0.3333E-01
     -9.142  0.2082E-09  0.3333E-01
     -9.049  0.9227E-08  0.3333E-01
     -8.956  0.2675E-06  0.3333E-01
     -8.863  0.5081E-05  0.3333E-01
     -8.770  0.6328E-04  0.3334E-01
     -8.676  0.5173E-03  0.3339E-01
     -8.583  0.2779E-02  0.3365E-01
     -8.490  0.9814E-02  0.3456E-01
     -8.397  0.2281E-01  0.3668E-01
     -8.304  0.3492E-01  0.3993E-01
     -8.211  0.3521E-01  0.4321E-01
     -8.118  0.2338E-01  0.4538E-01
     -8.025  0.1022E-01  0.4633E-01
     -7.932  0.2941E-02  0.4661E-01
     -7.839  0.5567E-03  0.4666E-01
     -7.746  0.6992E-04  0.4667E-01
     -7.653  0.1622E-04  0.4667E-01
     -7.560  0.1050E-03  0.4668E-01
     -7.467  0.6805E-03  0.4674E-01
     -7.374  0.2909E-02  0.4701E-01
     -7.281  0.8181E-02  0.4777E-01
     -7.188  0.1515E-01  0.4918E-01
     -7.095  0.1847E-01  0.5090E-01
     -7.002  0.1483E-01  0.5228E-01
     -6.909  0.7846E-02  0.5301E-01
     -6.816  0.2732E-02  0.5327E-01
     -6.722  0.6258E-03  0.5332E-01
     -6.629  0.9424E-04  0.5333E-01
     -6.536  0.9319E-05  0.5333E-01
     -6.443  0.6046E-06  0.5333E-01
     -6.350  0.2571E-07  0.5333E-01
     -6.257  0.7155E-09  0.5333E-01
     -6.164  0.1303E-10  0.5333E-01
     -6.071  0.1550E-12  0.5333E-01
     -5.978  0.1201E-14  0.5333E-01
     -5.885  0.7954E-17  0.5333E-01
     -5.792  0.0000E+00  0.5333E-01
     -5.699  0.0000E+00  0.5333E-01
     -5.606  0.0000E+00  0.5333E-01
     -5.513  0.0000E+00  0.5333E-01
     -5.420  0.0000E+00  0.5333E-01
     -5.327  0.0000E+00  0.5333E-01
     -5.234  0.0000E+00  0.5333E-01
     -5.141  0.0000E+00  0.5333E-01
     -5.048  0.0000E+00  0.5333E-01
     -4.955  0.0000E+00  0.5333E-01
     -4.862  0.0000E+00  0.5333E-01
     -4.768  0.0000E+00  0.5333E-01
     -4.675  0.0000E+00  0.5333E-01
     -4.582  0.0000E+00  0.5333E-01
     -4.489  0.0000E+00  0.5333E-01
     -4.396  0.0000E+00  0.5333E-01
     -4.303  0.0000E+00  0.5333E-01
     -4.210  0.0000E+00  0.5333E-01
     -4.117  0.0000E+00  0.5333E-01
     -4.024  0.0000E+00  0.5333E-01
     -3.931  0.0000E+00  0.5333E-01
     -3.838  0.0000E+00  0.5333E-01
     -3.745  0.0000E+00  0.5333E-01
     -3.652  0.0000E+00  0.5333E-01
     -3.559  0.0000E+00  0.5333E-01
     -3.466  0.0000E+00  0.5333E-01
     -3.373  0.0000E+00  0.5333E-01
     -3.280  0.0000E+00  0.5333E-01
     -3.187  0.0000E+00  0.5333E-01
     -3.094  0.0000E+00  0.5333E-01
     -3.001  0.0000E+00  0.5333E-01
     -2.907  0.0000E+00  0.5333E-01
     -2.814  0.0000E+00  0.5333E-01
     -2.721  0.0000E+00  0.5333E-01
     -2.628  0.0000E+00  0.5333E-01
     -2.535  0.0000E+00  0.5333E-01
     -2.442  0.0000E+00  0.5333E-01
     -2.349  0.0000E+00  0.5333E-01
     -2.256  0.0000E+00  0.5333E-01
     -2.163  0.0000E+00  0.5333E-01
     -2.070  0.0000E+00  0.5333E-01
     -1.977  0.0000E+00  0.5333E-01
     -1.884  0.7954E-16  0.5333E-01
     -1.791  0.1269E-13  0.5333E-01
     -1.698  0.1342E-11  0.5333E-01
     -1.605  0.9295E-10  0.5333E-01
     -1.512  0.4228E-08  0.5333E-01
     -1.419  0.1266E-06  0.5333E-01
     -1.326  0.2510E-05  0.5333E-01
     -1.233  0.3309E-04  0.5334E-01
     -1.140  0.2923E-03  0.5336E-01
     -1.047  0.1746E-02  0.5353E-01
     -0.953  0.7114E-02  0.5419E-01
     -0.860  0.1994E-01  0.5604E-01
     -0.767  0.3863E-01  0.5964E-01
     -0.674  0.5178E-01  0.6446E-01
     -0.581  0.4780E-01  0.6890E-01
     -0.488  0.3018E-01  0.7171E-01
     -0.395  0.1301E-01  0.7292E-01
     -0.302  0.4360E-02  0.7333E-01
     -0.209  0.3516E-02  0.7366E-01
     -0.116  0.8073E-02  0.7441E-01
     -0.023  0.1497E-01  0.7580E-01
      0.070  0.1847E-01  0.7752E-01
      0.163  0.1502E-01  0.7892E-01
      0.256  0.8044E-02  0.7966E-01
      0.349  0.2836E-02  0.7993E-01
      0.442  0.6578E-03  0.7999E-01
      0.535  0.1003E-03  0.8000E-01
      0.628  0.1004E-04  0.8000E-01
      0.721  0.6597E-06  0.8000E-01
      0.814  0.2840E-07  0.8000E-01
      0.908  0.8006E-09  0.8000E-01
      1.001  0.1476E-10  0.8000E-01
      1.094  0.1779E-12  0.8000E-01
      1.187  0.1398E-14  0.8000E-01
      1.280  0.7954E-17  0.8000E-01
      1.373  0.0000E+00  0.8000E-01
      1.466  0.0000E+00  0.8000E-01
      1.559  0.0000E+00  0.8000E-01
      1.652  0.0000E+00  0.8000E-01
      1.745  0.0000E+00  0.8000E-01
      1.838  0.0000E+00  0.8000E-01
      1.931  0.0000E+00  0.8000E-01
      2.024  0.0000E+00  0.8000E-01
