    6    6  300    1
  0.4500000E+04  0.3000000E-08  0.3000000E-08  0.3000000E-08  0.0000000E+00
  1.000000000000000E-004
  CAR 
 unknown system                          
     16      4     12
 
  0.2500000E+00  0.2500000E+00  0.2500000E+00  0.2500000E+00
    1      -23.890456   1.000000
    2      -19.299566   1.000000
    3      -13.883079   1.000000
    4      -11.798842   1.000000
    5      -11.798393   1.000000
    6       -8.302721   1.000000
    7       -8.302259   1.000000
    8       -7.143519   1.000000
    9       -0.762440   0.000000
   10       -0.662962   0.000000
   11       -0.662621   0.000000
   12        0.024084   0.000000
 
 -0.2500000E+00  0.2500000E+00  0.2500000E+00  0.2500000E+00
    1      -23.890456   1.000000
    2      -19.299570   1.000000
    3      -13.883078   1.000000
    4      -11.798840   1.000000
    5      -11.798389   1.000000
    6       -8.302713   1.000000
    7       -8.302257   1.000000
    8       -7.143521   1.000000
    9       -0.762440   0.000000
   10       -0.662969   0.000000
   11       -0.662626   0.000000
   12        0.023933   0.000000
 
  0.2500000E+00 -0.2500000E+00  0.2500000E+00  0.2500000E+00
    1      -23.890456   1.000000
    2      -19.299568   1.000000
    3      -13.883078   1.000000
    4      -11.798842   1.000000
    5      -11.798397   1.000000
    6       -8.302704   1.000000
    7       -8.302258   1.000000
    8       -7.143518   1.000000
    9       -0.762440   0.000000
   10       -0.662973   0.000000
   11       -0.662624   0.000000
   12        0.024065   0.000000
 
 -0.2500000E+00 -0.2500000E+00  0.2500000E+00  0.2500000E+00
    1      -23.890457   1.000000
    2      -19.299568   1.000000
    3      -13.883075   1.000000
    4      -11.798845   1.000000
    5      -11.798394   1.000000
    6       -8.302705   1.000000
    7       -8.302258   1.000000
    8       -7.143522   1.000000
    9       -0.762440   0.000000
   10       -0.662971   0.000000
   11       -0.662623   0.000000
   12        0.023806   0.000000
