       N       E                     dE             d eps       ncg     rms          rms(c)
DAV:   1     0.113043217784E+03    0.11304E+03   -0.21456E+03   160   0.366E+02
DAV:   2    -0.193712860894E+01   -0.11498E+03   -0.11280E+03   192   0.109E+02
DAV:   3    -0.348935948851E+02   -0.32956E+02   -0.32874E+02   144   0.873E+01
DAV:   4    -0.389636184739E+02   -0.40700E+01   -0.40277E+01   128   0.281E+01
DAV:   5    -0.390964052721E+02   -0.13279E+00   -0.13092E+00   120   0.547E+00    0.104E+01
DAV:   6    -0.364092892650E+02    0.26871E+01   -0.44739E+00   124   0.147E+01    0.562E+00
DAV:   7    -0.357085256671E+02    0.70076E+00   -0.18277E+00   128   0.928E+00    0.224E+00
DAV:   8    -0.356385552303E+02    0.69970E-01   -0.13899E-01   128   0.284E+00    0.878E-01
DAV:   9    -0.356200871587E+02    0.18468E-01   -0.21267E-02   128   0.123E+00    0.215E-01
DAV:  10    -0.356198811739E+02    0.20598E-03   -0.42375E-03   128   0.507E-01    0.130E-01
DAV:  11    -0.356215662522E+02   -0.16851E-02   -0.17069E-03   124   0.337E-01    0.807E-02
DAV:  12    -0.356272808883E+02   -0.57146E-02   -0.30542E-03   116   0.421E-01    0.457E-02
DAV:  13    -0.356333115412E+02   -0.60307E-02   -0.16118E-03   128   0.247E-01    0.285E-02
DAV:  14    -0.356372593125E+02   -0.39478E-02   -0.48520E-04   128   0.118E-01    0.185E-02
DAV:  15    -0.356405987628E+02   -0.33395E-02   -0.36173E-04   128   0.880E-02    0.117E-02
DAV:  16    -0.356418219247E+02   -0.12232E-02   -0.10895E-04   128   0.526E-02    0.660E-03
DAV:  17    -0.356426282283E+02   -0.80630E-03   -0.25735E-05    88   0.363E-02    0.406E-03
DAV:  18    -0.356430102747E+02   -0.38205E-03   -0.26847E-05    80   0.240E-02    0.272E-03
DAV:  19    -0.356432307168E+02   -0.22044E-03   -0.95641E-06    80   0.207E-02    0.261E-03
DAV:  20    -0.356432773861E+02   -0.46669E-04   -0.27013E-06    96   0.118E-02
   1 F= -.35643277E+02 E0= -.35643277E+02  d E =-.356433E+02
       N       E                     dE             d eps       ncg     rms          rms(c)
DAV:   1    -0.356433247557E+02   -0.94039E-04   -0.59403E-05    68   0.742E-02    0.298E-03
DAV:   2    -0.356433334281E+02   -0.86725E-05   -0.34087E-06    96   0.184E-02    0.152E-03
DAV:   3    -0.356433413472E+02   -0.79191E-05   -0.50561E-07    64   0.620E-03    0.943E-04
DAV:   4    -0.356433509780E+02   -0.96307E-05   -0.14063E-07    64   0.332E-03    0.334E-04
DAV:   5    -0.356433568442E+02   -0.58662E-05   -0.60434E-08    96   0.183E-03    0.197E-04
DAV:   6    -0.356433607389E+02   -0.38947E-05   -0.25535E-08    64   0.971E-04
   2 F= -.35643361E+02 E0= -.35643361E+02  d E =-.833527E-04
       N       E                     dE             d eps       ncg     rms          rms(c)
DAV:   1    -0.356433646317E+02   -0.77875E-05   -0.13894E-04    64   0.109E-01    0.271E-03
DAV:   2    -0.356433661690E+02   -0.15374E-05   -0.69784E-06    80   0.263E-02    0.169E-03
DAV:   3    -0.356433672379E+02   -0.10688E-05   -0.83844E-07    64   0.796E-03    0.103E-03
DAV:   4    -0.356433685710E+02   -0.13331E-05   -0.23601E-07    64   0.420E-03    0.301E-04
DAV:   5    -0.356433691729E+02   -0.60195E-06   -0.86201E-08    48   0.202E-03    0.232E-04
DAV:   6    -0.356433697357E+02   -0.56279E-06   -0.35814E-08    80   0.110E-03
   3 F= -.35643370E+02 E0= -.35643370E+02  d E =-.899685E-05
       N       E                     dE             d eps       ncg     rms          rms(c)
DAV:   1    -0.356433701988E+02   -0.10259E-05   -0.27395E-04    96   0.148E-01    0.365E-03
DAV:   2    -0.356433704090E+02   -0.21011E-06   -0.30861E-06    48   0.153E-02    0.229E-03
DAV:   3    -0.356433706947E+02   -0.28576E-06   -0.52454E-07    80   0.661E-03    0.699E-04
DAV:   4    -0.356433708978E+02   -0.20309E-06   -0.16006E-07    48   0.315E-03    0.315E-04
DAV:   5    -0.356433710705E+02   -0.17270E-06   -0.57342E-08    56   0.149E-03    0.127E-04
DAV:   6    -0.356433712242E+02   -0.15371E-06   -0.36171E-08    52   0.849E-04
   4 F= -.35643371E+02 E0= -.35643371E+02  d E =-.148850E-05
       N       E                     dE             d eps       ncg     rms          rms(c)
DAV:   1    -0.356433711861E+02   -0.11556E-06   -0.42197E-04    96   0.187E-01    0.489E-03
DAV:   2    -0.356433713259E+02   -0.13983E-06   -0.54349E-06    64   0.206E-02    0.297E-03
DAV:   3    -0.356433714164E+02   -0.90517E-07   -0.88825E-07    80   0.867E-03    0.125E-03
DAV:   4    -0.356433715243E+02   -0.10788E-06   -0.30748E-07    72   0.474E-03    0.478E-04
DAV:   5    -0.356433715763E+02   -0.52030E-07   -0.92955E-08    48   0.222E-03    0.181E-04
DAV:   6    -0.356433716114E+02   -0.35098E-07   -0.47759E-08    48   0.109E-03
   5 F= -.35643372E+02 E0= -.35643372E+02  d E =-.387207E-06
       N       E                     dE             d eps       ncg     rms          rms(c)
DAV:   1    -0.356433720672E+02   -0.49089E-06   -0.47484E-04    96   0.196E-01    0.496E-03
DAV:   2    -0.356433720518E+02    0.15412E-07   -0.55367E-06    64   0.206E-02    0.311E-03
DAV:   3    -0.356433720891E+02   -0.37306E-07   -0.96174E-07    48   0.906E-03    0.112E-03
DAV:   4    -0.356433721551E+02   -0.65995E-07   -0.31005E-07    48   0.456E-03    0.497E-04
DAV:   5    -0.356433721888E+02   -0.33700E-07   -0.97536E-08    48   0.213E-03    0.194E-04
DAV:   6    -0.356433722214E+02   -0.32604E-07   -0.56941E-08    48   0.116E-03
   6 F= -.35643372E+02 E0= -.35643372E+02  d E =-.609981E-06
       N       E                     dE             d eps       ncg     rms          rms(c)
DAV:   1    -0.356433730438E+02   -0.85504E-06   -0.46526E-04    96   0.193E-01    0.473E-03
DAV:   2    -0.356433731150E+02   -0.71114E-07   -0.52807E-06    56   0.199E-02    0.294E-03
DAV:   3    -0.356433732006E+02   -0.85624E-07   -0.84028E-07    48   0.826E-03    0.920E-04
DAV:   4    -0.356433732557E+02   -0.55083E-07   -0.25694E-07    48   0.395E-03    0.356E-04
DAV:   5    -0.356433732831E+02   -0.27415E-07   -0.93805E-08    48   0.189E-03    0.141E-04
DAV:   6    -0.356433733089E+02   -0.25783E-07   -0.55463E-08    48   0.101E-03
   7 F= -.35643373E+02 E0= -.35643373E+02  d E =-.108745E-05
       N       E                     dE             d eps       ncg     rms          rms(c)
DAV:   1    -0.356433746383E+02   -0.13552E-05   -0.52035E-04    96   0.201E-01    0.492E-03
DAV:   2    -0.356433746683E+02   -0.30048E-07   -0.57545E-06    48   0.201E-02    0.311E-03
DAV:   3    -0.356433747866E+02   -0.11831E-06   -0.93304E-07    48   0.857E-03    0.812E-04
DAV:   4    -0.356433748384E+02   -0.51748E-07   -0.26292E-07    48   0.387E-03    0.352E-04
DAV:   5    -0.356433748674E+02   -0.29027E-07   -0.95805E-08    48   0.183E-03    0.130E-04
DAV:   6    -0.356433748933E+02   -0.25914E-07   -0.57274E-08    48   0.103E-03
   8 F= -.35643375E+02 E0= -.35643375E+02  d E =-.158445E-05
       N       E                     dE             d eps       ncg     rms          rms(c)
DAV:   1    -0.356433768190E+02   -0.19516E-05   -0.59014E-04    96   0.213E-01    0.531E-03
DAV:   2    -0.356433768488E+02   -0.29829E-07   -0.65382E-06    48   0.217E-02    0.332E-03
DAV:   3    -0.356433770011E+02   -0.15224E-06   -0.10342E-06    48   0.908E-03    0.869E-04
DAV:   4    -0.356433770609E+02   -0.59831E-07   -0.28716E-07    48   0.411E-03    0.353E-04
DAV:   5    -0.356433770931E+02   -0.32155E-07   -0.10261E-07    48   0.196E-03    0.129E-04
DAV:   6    -0.356433771214E+02   -0.28334E-07   -0.57726E-08    48   0.107E-03
   9 F= -.35643377E+02 E0= -.35643377E+02  d E =-.222808E-05
       N       E                     dE             d eps       ncg     rms          rms(c)
DAV:   1    -0.356433797267E+02   -0.26337E-05   -0.75412E-04    96   0.244E-01    0.614E-03
DAV:   2    -0.356433797152E+02    0.11505E-07   -0.84870E-06    64   0.251E-02    0.385E-03
DAV:   3    -0.356433798797E+02   -0.16443E-06   -0.14023E-06    48   0.109E-02    0.112E-03
DAV:   4    -0.356433799675E+02   -0.87797E-07   -0.40224E-07    48   0.516E-03    0.497E-04
DAV:   5    -0.356433800026E+02   -0.35193E-07   -0.12329E-07    48   0.244E-03    0.199E-04
DAV:   6    -0.356433800349E+02   -0.32289E-07   -0.65097E-08    48   0.137E-03
  10 F= -.35643380E+02 E0= -.35643380E+02  d E =-.291354E-05
       N       E                     dE             d eps       ncg     rms          rms(c)
DAV:   1    -0.356433812321E+02   -0.12294E-05   -0.12550E-03    96   0.323E-01    0.920E-03
DAV:   2    -0.356433811129E+02    0.11920E-06   -0.18110E-05    64   0.372E-02    0.555E-03
DAV:   3    -0.356433811352E+02   -0.22306E-07   -0.30162E-06    96   0.162E-02    0.258E-03
DAV:   4    -0.356433813396E+02   -0.20438E-06   -0.10950E-06    48   0.944E-03    0.100E-03
DAV:   5    -0.356433813834E+02   -0.43873E-07   -0.25239E-07    48   0.437E-03    0.349E-04
DAV:   6    -0.356433814211E+02   -0.37657E-07   -0.85648E-08    48   0.198E-03
  11 F= -.35643381E+02 E0= -.35643381E+02  d E =-.138616E-05
       N       E                     dE             d eps       ncg     rms          rms(c)
DAV:   1    -0.356433841582E+02   -0.27748E-05   -0.18026E-04    48   0.131E-01    0.622E-03
DAV:   2    -0.356433846315E+02   -0.47323E-06   -0.10803E-05    64   0.323E-02    0.312E-03
DAV:   3    -0.356433845220E+02    0.10952E-06   -0.11749E-06    68   0.106E-02    0.202E-03
DAV:   4    -0.356433845080E+02    0.13957E-07   -0.81789E-07    96   0.960E-03    0.605E-04
DAV:   5    -0.356433845433E+02   -0.35315E-07   -0.23345E-07    48   0.460E-03    0.439E-04
DAV:   6    -0.356433845703E+02   -0.26993E-07   -0.66326E-08    48   0.193E-03
  12 F= -.35643385E+02 E0= -.35643385E+02  d E =-.314921E-05
       N       E                     dE             d eps       ncg     rms          rms(c)
DAV:   1    -0.356433847511E+02   -0.20775E-06   -0.70559E-07    48   0.805E-03    0.289E-04
DAV:   2    -0.356433847787E+02   -0.27660E-07   -0.68702E-08    48   0.187E-03    0.167E-04
DAV:   3    -0.356433847996E+02   -0.20831E-07   -0.36269E-08    48   0.586E-04    0.111E-04
DAV:   4    -0.356433848375E+02   -0.37983E-07   -0.33824E-08    48   0.382E-04    0.265E-05
DAV:   5    -0.356433848518E+02   -0.14308E-07   -0.32826E-08    48   0.175E-04    0.211E-05
DAV:   6    -0.356433848684E+02   -0.16517E-07   -0.32421E-08    48   0.102E-04
  13 F= -.35643385E+02 E0= -.35643385E+02  d E =-.298059E-06
       N       E                     dE             d eps       ncg     rms          rms(c)
DAV:   1    -0.356433850377E+02   -0.18588E-06   -0.20970E-06    48   0.139E-02    0.571E-04
DAV:   2    -0.356433850602E+02   -0.22470E-07   -0.15572E-07    48   0.344E-03    0.328E-04
DAV:   3    -0.356433850678E+02   -0.75661E-08   -0.44995E-08    48   0.114E-03    0.215E-04
DAV:   4    -0.356433850790E+02   -0.11247E-07   -0.40613E-08    48   0.101E-03    0.681E-05
DAV:   5    -0.356433850821E+02   -0.31082E-08   -0.33819E-08    48   0.478E-04    0.565E-05
DAV:   6    -0.356433850851E+02   -0.30213E-08   -0.32114E-08    48   0.223E-04
  14 F= -.35643385E+02 E0= -.35643385E+02  d E =-.216774E-06
       N       E                     dE             d eps       ncg     rms          rms(c)
DAV:   1    -0.356433851831E+02   -0.10098E-06   -0.25924E-06    48   0.154E-02    0.580E-04
DAV:   2    -0.356433851982E+02   -0.15086E-07   -0.18001E-07    48   0.378E-03    0.350E-04
DAV:   3    -0.356433851998E+02   -0.16223E-08   -0.47892E-08    48   0.125E-03    0.233E-04
DAV:   4    -0.356433852019E+02   -0.20465E-08   -0.40898E-08    48   0.102E-03    0.750E-05
DAV:   5    -0.356433852027E+02   -0.86561E-09   -0.34064E-08    48   0.484E-04    0.602E-05
DAV:   6    -0.356433852036E+02   -0.87107E-09   -0.32186E-08    48   0.230E-04
  15 F= -.35643385E+02 E0= -.35643385E+02  d E =-.118451E-06
       N       E                     dE             d eps       ncg     rms          rms(c)
DAV:   1    -0.356433852869E+02   -0.84210E-07   -0.21312E-06    48   0.135E-02    0.421E-04
DAV:   2    -0.356433852977E+02   -0.10775E-07   -0.14117E-07    48   0.324E-03    0.268E-04
DAV:   3    -0.356433852996E+02   -0.18647E-08   -0.44145E-08    48   0.103E-03    0.185E-04
DAV:   4    -0.356433853005E+02   -0.93655E-09   -0.36326E-08    48   0.688E-04    0.671E-05
DAV:   5    -0.356433853012E+02   -0.66439E-09   -0.33218E-08    48   0.334E-04    0.420E-05
DAV:   6    -0.356433853017E+02   -0.53205E-09   -0.32051E-08    48   0.157E-04
  16 F= -.35643385E+02 E0= -.35643385E+02  d E =-.981116E-07
       N       E                     dE             d eps       ncg     rms          rms(c)
DAV:   1    -0.356433854529E+02   -0.15170E-06   -0.24811E-06    48   0.142E-02    0.351E-04
DAV:   2    -0.356433854637E+02   -0.10795E-07   -0.15026E-07    48   0.343E-03    0.215E-04
DAV:   3    -0.356433854665E+02   -0.28538E-08   -0.45956E-08    48   0.103E-03    0.109E-04
DAV:   4    -0.356433854676E+02   -0.10796E-08   -0.35498E-08    48   0.492E-04    0.371E-05
DAV:   5    -0.356433854679E+02   -0.25148E-09   -0.33102E-08    48   0.241E-04    0.252E-05
DAV:   6    -0.356433854683E+02   -0.47248E-09   -0.32387E-08    48   0.137E-04
  17 F= -.35643385E+02 E0= -.35643385E+02  d E =-.166623E-06
       N       E                     dE             d eps       ncg     rms          rms(c)
DAV:   1    -0.356433856774E+02   -0.20956E-06   -0.45873E-06    48   0.198E-02    0.502E-04
DAV:   2    -0.356433856924E+02   -0.15012E-07   -0.26409E-07    48   0.482E-03    0.303E-04
DAV:   3    -0.356433856953E+02   -0.28781E-08   -0.60053E-08    48   0.146E-03    0.172E-04
DAV:   4    -0.356433856966E+02   -0.12476E-08   -0.39663E-08    48   0.764E-04    0.392E-05
DAV:   5    -0.356433856969E+02   -0.35811E-09   -0.34778E-08    48   0.370E-04    0.394E-05
DAV:   6    -0.356433856971E+02   -0.14097E-09   -0.33084E-08    48   0.194E-04
  18 F= -.35643386E+02 E0= -.35643386E+02  d E =-.228729E-06
       N       E                     dE             d eps       ncg     rms          rms(c)
DAV:   1    -0.356433859097E+02   -0.21280E-06   -0.10452E-05    48   0.300E-02    0.782E-04
DAV:   2    -0.356433859439E+02   -0.34206E-07   -0.57279E-07    48   0.734E-03    0.474E-04
DAV:   3    -0.356433859491E+02   -0.51582E-08   -0.97291E-08    48   0.223E-03    0.289E-04
DAV:   4    -0.356433859511E+02   -0.20586E-08   -0.50769E-08    48   0.125E-03    0.681E-05
DAV:   5    -0.356433859517E+02   -0.55115E-09   -0.38977E-08    48   0.602E-04    0.684E-05
DAV:   6    -0.356433859519E+02   -0.23647E-09   -0.34589E-08    48   0.302E-04
  19 F= -.35643386E+02 E0= -.35643386E+02  d E =-.254865E-06
       N       E                     dE             d eps       ncg     rms          rms(c)
DAV:   1    -0.356433860634E+02   -0.11170E-06   -0.21868E-05    48   0.430E-02    0.108E-03
DAV:   2    -0.356433861430E+02   -0.79640E-07   -0.11309E-06    48   0.105E-02    0.649E-04
DAV:   3    -0.356433861579E+02   -0.14840E-07   -0.16517E-07    48   0.315E-03    0.355E-04
DAV:   4    -0.356433861627E+02   -0.48444E-08   -0.68196E-08    48   0.162E-03    0.849E-05
DAV:   5    -0.356433861639E+02   -0.12046E-08   -0.45075E-08    48   0.779E-04    0.831E-05
DAV:   6    -0.356433861643E+02   -0.43769E-09   -0.37193E-08    48   0.419E-04
  20 F= -.35643386E+02 E0= -.35643386E+02  d E =-.212427E-06
       N       E                     dE             d eps       ncg     rms          rms(c)
DAV:   1    -0.356433861470E+02    0.16947E-07   -0.47286E-05    48   0.625E-02    0.152E-03
DAV:   2    -0.356433863326E+02   -0.18567E-06   -0.23367E-06    48   0.151E-02    0.921E-04
DAV:   3    -0.356433863732E+02   -0.40601E-07   -0.30906E-07    48   0.450E-03    0.435E-04
DAV:   4    -0.356433863824E+02   -0.92095E-08   -0.10394E-07    48   0.213E-03    0.124E-04
DAV:   5    -0.356433863845E+02   -0.20964E-08   -0.57350E-08    48   0.105E-03    0.100E-04
DAV:   6    -0.356433863851E+02   -0.56593E-09   -0.42278E-08    48   0.605E-04
  21 F= -.35643386E+02 E0= -.35643386E+02  d E =-.220763E-06
       N       E                     dE             d eps       ncg     rms          rms(c)
DAV:   1    -0.356433860513E+02    0.33321E-06   -0.10983E-04    48   0.954E-02    0.232E-03
DAV:   2    -0.356433864919E+02   -0.44059E-06   -0.53780E-06    48   0.230E-02    0.143E-03
DAV:   3    -0.356433865798E+02   -0.87925E-07   -0.67230E-07    48   0.689E-03    0.708E-04
DAV:   4    -0.356433865999E+02   -0.20031E-07   -0.19794E-07    48   0.329E-03    0.218E-04
DAV:   5    -0.356433866039E+02   -0.40645E-08   -0.88433E-08    48   0.162E-03    0.161E-04
DAV:   6    -0.356433866047E+02   -0.73601E-09   -0.53208E-08    48   0.927E-04
  22 F= -.35643387E+02 E0= -.35643387E+02  d E =-.219568E-06
       N       E                     dE             d eps       ncg     rms          rms(c)
DAV:   1    -0.356433864395E+02    0.16445E-06   -0.26494E-04    96   0.145E-01    0.359E-03
DAV:   2    -0.356433864686E+02   -0.29077E-07   -0.29622E-06    48   0.149E-02    0.227E-03
DAV:   3    -0.356433865205E+02   -0.51923E-07   -0.52279E-07    56   0.645E-03    0.596E-04
DAV:   4    -0.356433865415E+02   -0.21012E-07   -0.16363E-07    48   0.296E-03    0.288E-04
DAV:   5    -0.356433865482E+02   -0.66987E-08   -0.71217E-08    48   0.141E-03    0.125E-04
DAV:   6    -0.356433865565E+02   -0.83444E-08   -0.50748E-08    48   0.808E-04
  23 F= -.35643387E+02 E0= -.35643387E+02  d E =0.481326E-07
       N       E                     dE             d eps       ncg     rms          rms(c)
DAV:   1    -0.356433858846E+02    0.66363E-06   -0.59143E-04    96   0.218E-01    0.528E-03
DAV:   2    -0.356433859903E+02   -0.10577E-06   -0.65026E-06    64   0.222E-02    0.333E-03
DAV:   3    -0.356433860950E+02   -0.10465E-06   -0.10462E-06    48   0.927E-03    0.847E-04
DAV:   4    -0.356433861402E+02   -0.45207E-07   -0.29193E-07    48   0.416E-03    0.369E-04
DAV:   5    -0.356433861561E+02   -0.15932E-07   -0.10734E-07    48   0.202E-03    0.146E-04
DAV:   6    -0.356433861727E+02   -0.16599E-07   -0.63116E-08    48   0.112E-03
  24 F= -.35643386E+02 E0= -.35643386E+02  d E =0.383823E-06
       N       E                     dE             d eps       ncg     rms          rms(c)
DAV:   1    -0.356433846014E+02    0.15547E-05   -0.12837E-03    96   0.321E-01    0.778E-03
DAV:   2    -0.356433848916E+02   -0.29022E-06   -0.14246E-05    64   0.329E-02    0.489E-03
DAV:   3    -0.356433850963E+02   -0.20462E-06   -0.22003E-06    48   0.135E-02    0.132E-03
DAV:   4    -0.356433851972E+02   -0.10089E-06   -0.58856E-07    48   0.613E-03    0.533E-04
DAV:   5    -0.356433852292E+02   -0.32078E-07   -0.18837E-07    48   0.298E-03    0.202E-04
DAV:   6    -0.356433852590E+02   -0.29793E-07   -0.90782E-08    48   0.163E-03
  25 F= -.35643385E+02 E0= -.35643385E+02  d E =0.913683E-06
       N       E                     dE             d eps       ncg     rms          rms(c)
DAV:   1    -0.356433817632E+02    0.34660E-05   -0.26179E-03    96   0.458E-01    0.110E-02
DAV:   2    -0.356433824490E+02   -0.68580E-06   -0.28716E-05    64   0.466E-02    0.697E-03
DAV:   3    -0.356433828535E+02   -0.40445E-06   -0.44097E-06    64   0.192E-02    0.181E-03
DAV:   4    -0.356433830449E+02   -0.19147E-06   -0.11474E-06    48   0.866E-03    0.732E-04
DAV:   5    -0.356433831095E+02   -0.64558E-07   -0.34127E-07    48   0.419E-03    0.272E-04
DAV:   6    -0.356433831634E+02   -0.53906E-07   -0.14452E-07    48   0.230E-03
  26 F= -.35643383E+02 E0= -.35643383E+02  d E =0.209563E-05
       N       E                     dE             d eps       ncg     rms          rms(c)
DAV:   1    -0.356433776735E+02    0.54360E-05   -0.45302E-03    96   0.601E-01    0.144E-02
DAV:   2    -0.356433789161E+02   -0.12426E-05   -0.49260E-05    64   0.609E-02    0.915E-03
DAV:   3    -0.356433796108E+02   -0.69473E-06   -0.76024E-06    64   0.253E-02    0.233E-03
DAV:   4    -0.356433799348E+02   -0.32394E-06   -0.19643E-06    48   0.114E-02    0.947E-04
DAV:   5    -0.356433800557E+02   -0.12088E-06   -0.56002E-07    48   0.546E-03    0.346E-04
DAV:   6    -0.356433801508E+02   -0.95132E-07   -0.22195E-07    48   0.302E-03
  27 F= -.35643380E+02 E0= -.35643380E+02  d E =0.301261E-05
       N       E                     dE             d eps       ncg     rms          rms(c)
DAV:   1    -0.356433749893E+02    0.50663E-05   -0.67912E-03    96   0.735E-01    0.177E-02
DAV:   2    -0.356433768253E+02   -0.18360E-05   -0.73916E-05    64   0.746E-02    0.112E-02
DAV:   3    -0.356433778565E+02   -0.10312E-05   -0.11316E-05    64   0.309E-02    0.284E-03
DAV:   4    -0.356433783621E+02   -0.50554E-06   -0.29015E-06    48   0.138E-02    0.113E-03
DAV:   5    -0.356433785797E+02   -0.21766E-06   -0.82108E-07    48   0.664E-03    0.403E-04
DAV:   6    -0.356433787354E+02   -0.15562E-06   -0.31252E-07    48   0.365E-03
  28 F= -.35643379E+02 E0= -.35643379E+02  d E =0.141545E-05
       N       E                     dE             d eps       ncg     rms          rms(c)
DAV:   1    -0.356433751730E+02    0.34067E-05   -0.81724E-03    96   0.808E-01    0.196E-02
DAV:   2    -0.356433771953E+02   -0.20222E-05   -0.90198E-05    64   0.827E-02    0.124E-02
DAV:   3    -0.356433784910E+02   -0.12957E-05   -0.14013E-05    64   0.342E-02    0.320E-03
DAV:   4    -0.356433791492E+02   -0.65818E-06   -0.35602E-06    48   0.154E-02    0.137E-03
DAV:   5    -0.356433794478E+02   -0.29862E-06   -0.99843E-07    48   0.752E-03    0.546E-04
DAV:   6    -0.356433796709E+02   -0.22313E-06   -0.37320E-07    48   0.413E-03
  29 F= -.35643380E+02 E0= -.35643380E+02  d E =-.935557E-06
       N       E                     dE             d eps       ncg     rms          rms(c)
DAV:   1    -0.356433801143E+02   -0.66648E-06   -0.31766E-06    48   0.164E-02    0.444E-04
DAV:   2    -0.356433802522E+02   -0.13799E-06   -0.22440E-07    48   0.429E-03    0.268E-04
DAV:   3    -0.356433804015E+02   -0.14923E-06   -0.63497E-08    48   0.150E-03    0.174E-04
DAV:   4    -0.356433805955E+02   -0.19397E-06   -0.43749E-08    48   0.774E-04    0.709E-05
DAV:   5    -0.356433807461E+02   -0.15062E-06   -0.39352E-08    48   0.453E-04    0.389E-05
DAV:   6    -0.356433809096E+02   -0.16356E-06   -0.37722E-08    64   0.326E-04
  30 F= -.35643381E+02 E0= -.35643381E+02  d E =-.123872E-05
       N       E                     dE             d eps       ncg     rms          rms(c)
DAV:   1    -0.356433813647E+02   -0.61863E-06   -0.11717E-05    48   0.317E-02    0.776E-04
DAV:   2    -0.356433814521E+02   -0.87420E-07   -0.61346E-07    48   0.757E-03    0.462E-04
DAV:   3    -0.356433815057E+02   -0.53563E-07   -0.10813E-07    48   0.235E-03    0.276E-04
DAV:   4    -0.356433815622E+02   -0.56482E-07   -0.52943E-08    68   0.113E-03    0.108E-04
DAV:   5    -0.356433816052E+02   -0.43027E-07   -0.40380E-08    48   0.557E-04    0.559E-05
DAV:   6    -0.356433816437E+02   -0.38485E-07   -0.36962E-08    48   0.319E-04
  31 F= -.35643382E+02 E0= -.35643382E+02  d E =-.734045E-06
       N       E                     dE             d eps       ncg     rms          rms(c)
DAV:   1    -0.356433820431E+02   -0.43789E-06   -0.24789E-05    48   0.462E-02    0.111E-03
DAV:   2    -0.356433821539E+02   -0.11078E-06   -0.12662E-06    48   0.110E-02    0.658E-04
DAV:   3    -0.356433821812E+02   -0.27360E-07   -0.19341E-07    48   0.342E-03    0.373E-04
DAV:   4    -0.356433821971E+02   -0.15847E-07   -0.73969E-08    48   0.164E-03    0.135E-04
DAV:   5    -0.356433822067E+02   -0.96768E-08   -0.45982E-08    48   0.807E-04    0.782E-05
DAV:   6    -0.356433822142E+02   -0.74369E-08   -0.37229E-08    48   0.460E-04
  32 F= -.35643382E+02 E0= -.35643382E+02  d E =-.570505E-06
       N       E                     dE             d eps       ncg     rms          rms(c)
DAV:   1    -0.356433826101E+02   -0.40337E-06   -0.40920E-05    48   0.595E-02    0.141E-03
DAV:   2    -0.356433827806E+02   -0.17044E-06   -0.20735E-06    48   0.142E-02    0.836E-04
DAV:   3    -0.356433828094E+02   -0.28847E-07   -0.29391E-07    48   0.440E-03    0.457E-04
DAV:   4    -0.356433828159E+02   -0.64410E-08   -0.96073E-08    48   0.212E-03    0.149E-04
DAV:   5    -0.356433828188E+02   -0.29077E-08   -0.50654E-08    48   0.105E-03    0.987E-05
DAV:   6    -0.356433828202E+02   -0.14600E-08   -0.36533E-08    48   0.595E-04
  33 F= -.35643383E+02 E0= -.35643383E+02  d E =-.606038E-06
       N       E                     dE             d eps       ncg     rms          rms(c)
DAV:   1    -0.356433831772E+02   -0.35843E-06   -0.57701E-05    48   0.706E-02    0.166E-03
DAV:   2    -0.356433834186E+02   -0.24138E-06   -0.29168E-06    48   0.169E-02    0.989E-04
DAV:   3    -0.356433834582E+02   -0.39634E-07   -0.40002E-07    48   0.522E-03    0.535E-04
DAV:   4    -0.356433834650E+02   -0.67907E-08   -0.12131E-07    48   0.252E-03    0.165E-04
DAV:   5    -0.356433834680E+02   -0.29738E-08   -0.57682E-08    48   0.125E-03    0.117E-04
DAV:   6    -0.356433834689E+02   -0.92132E-09   -0.37818E-08    48   0.711E-04
  34 F= -.35643383E+02 E0= -.35643383E+02  d E =-.648675E-06
       N       E                     dE             d eps       ncg     rms          rms(c)
DAV:   1    -0.356433837731E+02   -0.30516E-06   -0.72007E-05    48   0.787E-02    0.184E-03
DAV:   2    -0.356433840756E+02   -0.30242E-06   -0.36311E-06    48   0.189E-02    0.110E-03
DAV:   3    -0.356433841256E+02   -0.50020E-07   -0.49106E-07    48   0.582E-03    0.597E-04
DAV:   4    -0.356433841345E+02   -0.88949E-08   -0.14358E-07    48   0.281E-03    0.189E-04
DAV:   5    -0.356433841385E+02   -0.40704E-08   -0.63849E-08    48   0.139E-03    0.130E-04
DAV:   6    -0.356433841405E+02   -0.19675E-08   -0.39251E-08    48   0.797E-04
  35 F= -.35643384E+02 E0= -.35643384E+02  d E =-.671613E-06
       N       E                     dE             d eps       ncg     rms          rms(c)
DAV:   1    -0.356433843930E+02   -0.25448E-06   -0.10012E-04    48   0.925E-02    0.216E-03
DAV:   2    -0.356433848149E+02   -0.42190E-06   -0.50366E-06    48   0.223E-02    0.131E-03
DAV:   3    -0.356433848833E+02   -0.68405E-07   -0.66811E-07    48   0.686E-03    0.717E-04
DAV:   4    -0.356433848967E+02   -0.13399E-07   -0.18844E-07    48   0.330E-03    0.235E-04
DAV:   5    -0.356433849024E+02   -0.57205E-08   -0.76933E-08    48   0.162E-03    0.158E-04
DAV:   6    -0.356433849054E+02   -0.29920E-08   -0.43215E-08    48   0.943E-04
  36 F= -.35643385E+02 E0= -.35643385E+02  d E =-.764926E-06
       N       E                     dE             d eps       ncg     rms          rms(c)
DAV:   1    -0.356433857185E+02   -0.81603E-06   -0.13006E-04    96   0.103E-01    0.240E-03
DAV:   2    -0.356433857449E+02   -0.26465E-07   -0.14703E-06    48   0.104E-02    0.153E-03
DAV:   3    -0.356433857592E+02   -0.14244E-07   -0.27311E-07    48   0.455E-03    0.432E-04
DAV:   4    -0.356433857688E+02   -0.96691E-08   -0.91468E-08    48   0.214E-03    0.198E-04
DAV:   5    -0.356433857750E+02   -0.61439E-08   -0.43698E-08    48   0.106E-03    0.791E-05
DAV:   6    -0.356433857826E+02   -0.75920E-08   -0.33411E-08    48   0.620E-04
  37 F= -.35643386E+02 E0= -.35643386E+02  d E =-.877149E-06
       N       E                     dE             d eps       ncg     rms          rms(c)
DAV:   1    -0.356433858089E+02   -0.33871E-07   -0.73581E-08    48   0.197E-03    0.618E-05
DAV:   2    -0.356433858156E+02   -0.67114E-08   -0.30234E-08    48   0.527E-04    0.383E-05
DAV:   3    -0.356433858225E+02   -0.69624E-08   -0.27841E-08    48   0.199E-04    0.245E-05
DAV:   4    -0.356433858326E+02   -0.10048E-07   -0.27774E-08    48   0.118E-04    0.972E-06
DAV:   5    -0.356433858398E+02   -0.71802E-08   -0.27941E-08    48   0.700E-05    0.634E-06
DAV:   6    -0.356433858484E+02   -0.86002E-08   -0.28341E-08    48   0.502E-05
  38 F= -.35643386E+02 E0= -.35643386E+02  d E =-.657811E-07
       N       E                     dE             d eps       ncg     rms          rms(c)
DAV:   1    -0.356433858932E+02   -0.53471E-07   -0.24754E-07    48   0.425E-03    0.117E-04
DAV:   2    -0.356433858973E+02   -0.40759E-08   -0.39747E-08    48   0.101E-03    0.729E-05
DAV:   3    -0.356433859004E+02   -0.30434E-08   -0.30644E-08    48   0.312E-04    0.455E-05
DAV:   4    -0.356433859028E+02   -0.24045E-08   -0.30053E-08    48   0.160E-04    0.186E-05
DAV:   5    -0.356433859041E+02   -0.13267E-08   -0.30132E-08    48   0.788E-05    0.975E-06
DAV:   6    -0.356433859051E+02   -0.97680E-09   -0.30423E-08    48   0.426E-05
  39 F= -.35643386E+02 E0= -.35643386E+02  d E =-.566980E-07
       N       E                     dE             d eps       ncg     rms          rms(c)
DAV:   1    -0.356433859536E+02   -0.49560E-07   -0.66641E-07    48   0.724E-03    0.194E-04
DAV:   2    -0.356433859585E+02   -0.48744E-08   -0.61850E-08    48   0.173E-03    0.119E-04
DAV:   3    -0.356433859605E+02   -0.19613E-08   -0.34885E-08    48   0.528E-04    0.697E-05
DAV:   4    -0.356433859611E+02   -0.57503E-09   -0.32429E-08    48   0.261E-04    0.274E-05
DAV:   5    -0.356433859610E+02    0.30013E-10   -0.31880E-08    48   0.127E-04    0.152E-05
DAV:   6    -0.356433859611E+02   -0.12426E-09   -0.31862E-08    48   0.691E-05
  40 F= -.35643386E+02 E0= -.35643386E+02  d E =-.560887E-07
       N       E                     dE             d eps       ncg     rms          rms(c)
DAV:   1    -0.356433860102E+02   -0.49211E-07   -0.15758E-06    48   0.113E-02    0.292E-04
DAV:   2    -0.356433860187E+02   -0.84970E-08   -0.10723E-07    48   0.271E-03    0.178E-04
DAV:   3    -0.356433860210E+02   -0.22937E-08   -0.41275E-08    48   0.821E-04    0.970E-05
DAV:   4    -0.356433860216E+02   -0.61414E-09   -0.34667E-08    48   0.396E-04    0.359E-05
DAV:   5    -0.356433860215E+02    0.11551E-09   -0.33135E-08    48   0.194E-04    0.217E-05
DAV:   6    -0.356433860214E+02    0.13324E-09   -0.32717E-08    48   0.108E-04
  41 F= -.35643386E+02 E0= -.35643386E+02  d E =-.602427E-07
       N       E                     dE             d eps       ncg     rms          rms(c)
DAV:   1    -0.356433860591E+02   -0.37608E-07   -0.34586E-06    48   0.169E-02    0.424E-04
DAV:   2    -0.356433860750E+02   -0.15882E-07   -0.19993E-07    48   0.407E-03    0.257E-04
DAV:   3    -0.356433860792E+02   -0.41509E-08   -0.52860E-08    48   0.122E-03    0.133E-04
DAV:   4    -0.356433860804E+02   -0.12221E-08   -0.38016E-08    48   0.584E-04    0.456E-05
DAV:   5    -0.356433860800E+02    0.34220E-09   -0.34521E-08    48   0.287E-04    0.302E-05
DAV:   6    -0.356433860800E+02    0.41837E-10   -0.33460E-08    48   0.163E-04
  42 F= -.35643386E+02 E0= -.35643386E+02  d E =-.586122E-07
       N       E                     dE             d eps       ncg     rms          rms(c)
DAV:   1    -0.356433860860E+02   -0.59952E-08   -0.71736E-06    48   0.245E-02    0.601E-04
DAV:   2    -0.356433861172E+02   -0.31177E-07   -0.38308E-07    48   0.590E-03    0.365E-04
DAV:   3    -0.356433861245E+02   -0.72889E-08   -0.75250E-08    48   0.177E-03    0.182E-04
DAV:   4    -0.356433861263E+02   -0.18401E-08   -0.44058E-08    48   0.842E-04    0.586E-05
DAV:   5    -0.356433861261E+02    0.26853E-09   -0.36823E-08    48   0.416E-04    0.419E-05
DAV:   6    -0.356433861261E+02    0.20236E-10   -0.34602E-08    48   0.238E-04
  43 F= -.35643386E+02 E0= -.35643386E+02  d E =-.460539E-07
       N       E                     dE             d eps       ncg     rms          rms(c)
DAV:   1    -0.356433860482E+02    0.77844E-07   -0.18148E-05    48   0.391E-02    0.945E-04
DAV:   2    -0.356433861234E+02   -0.75191E-07   -0.92284E-07    48   0.942E-03    0.576E-04
DAV:   3    -0.356433861397E+02   -0.16231E-07   -0.14013E-07    48   0.282E-03    0.282E-04
DAV:   4    -0.356433861434E+02   -0.37910E-08   -0.60922E-08    48   0.134E-03    0.863E-05
DAV:   5    -0.356433861437E+02   -0.29809E-09   -0.42795E-08    48   0.663E-04    0.650E-05
DAV:   6    -0.356433861438E+02   -0.17735E-10   -0.37044E-08    48   0.380E-04
  44 F= -.35643386E+02 E0= -.35643386E+02  d E =-.177051E-07
       N       E                     dE             d eps       ncg     rms          rms(c)
DAV:   1    -0.356433858531E+02    0.29063E-06   -0.45539E-05    48   0.620E-02    0.148E-03
DAV:   2    -0.356433860401E+02   -0.18699E-06   -0.22714E-06    48   0.150E-02    0.908E-04
DAV:   3    -0.356433860779E+02   -0.37791E-07   -0.30169E-07    48   0.448E-03    0.441E-04
DAV:   4    -0.356433860861E+02   -0.82287E-08   -0.10246E-07    48   0.212E-03    0.130E-04
DAV:   5    -0.356433860874E+02   -0.12956E-08   -0.57106E-08    48   0.105E-03    0.101E-04
DAV:   6    -0.356433860876E+02   -0.15416E-09   -0.42612E-08    48   0.604E-04
  45 F= -.35643386E+02 E0= -.35643386E+02  d E =0.561934E-07
       N       E                     dE             d eps       ncg     rms          rms(c)
DAV:   1    -0.356433852979E+02    0.78950E-06   -0.11213E-04    64   0.974E-02    0.231E-03
DAV:   2    -0.356433857589E+02   -0.46099E-06   -0.55501E-06    48   0.235E-02    0.142E-03
DAV:   3    -0.356433858451E+02   -0.86232E-07   -0.69325E-07    48   0.703E-03    0.686E-04
DAV:   4    -0.356433858641E+02   -0.19008E-07   -0.20177E-07    48   0.333E-03    0.199E-04
DAV:   5    -0.356433858682E+02   -0.40582E-08   -0.90406E-08    48   0.165E-03    0.157E-04
DAV:   6    -0.356433858688E+02   -0.58344E-09   -0.54541E-08    48   0.948E-04
  46 F= -.35643386E+02 E0= -.35643386E+02  d E =0.218790E-06
       N       E                     dE             d eps       ncg     rms          rms(c)
DAV:   1    -0.356433851696E+02    0.69855E-06   -0.28130E-04    96   0.151E-01    0.368E-03
DAV:   2    -0.356433852182E+02   -0.48590E-07   -0.31833E-06    48   0.155E-02    0.231E-03
DAV:   3    -0.356433852691E+02   -0.50828E-07   -0.53719E-07    48   0.646E-03    0.608E-04
DAV:   4    -0.356433852906E+02   -0.21534E-07   -0.16491E-07    48   0.293E-03    0.274E-04
DAV:   5    -0.356433852973E+02   -0.67300E-08   -0.74079E-08    48   0.144E-03    0.111E-04
DAV:   6    -0.356433853051E+02   -0.77914E-08   -0.51757E-08    48   0.799E-04
  47 F= -.35643385E+02 E0= -.35643385E+02  d E =0.563663E-06
       N       E                     dE             d eps       ncg     rms          rms(c)
DAV:   1    -0.356433837836E+02    0.15138E-05   -0.65285E-04    96   0.230E-01    0.557E-03
DAV:   2    -0.356433839264E+02   -0.14279E-06   -0.72465E-06    64   0.235E-02    0.351E-03
DAV:   3    -0.356433840368E+02   -0.11042E-06   -0.11615E-06    48   0.974E-03    0.920E-04
DAV:   4    -0.356433840851E+02   -0.48313E-07   -0.31976E-07    48   0.439E-03    0.404E-04
DAV:   5    -0.356433840995E+02   -0.14443E-07   -0.11571E-07    48   0.214E-03    0.163E-04
DAV:   6    -0.356433841149E+02   -0.15364E-07   -0.66427E-08    48   0.118E-03
  48 F= -.35643384E+02 E0= -.35643384E+02  d E =0.119021E-05
       N       E                     dE             d eps       ncg     rms          rms(c)
DAV:   1    -0.356433811908E+02    0.29088E-05   -0.14569E-03    96   0.343E-01    0.829E-03
DAV:   2    -0.356433815626E+02   -0.37180E-06   -0.16063E-05    64   0.350E-02    0.524E-03
DAV:   3    -0.356433817894E+02   -0.22686E-06   -0.25178E-06    64   0.145E-02    0.137E-03
DAV:   4    -0.356433818922E+02   -0.10280E-06   -0.65970E-07    48   0.652E-03    0.587E-04
DAV:   5    -0.356433819238E+02   -0.31622E-07   -0.20750E-07    48   0.317E-03    0.231E-04
DAV:   6    -0.356433819542E+02   -0.30307E-07   -0.98230E-08    48   0.175E-03
  49 F= -.35643382E+02 E0= -.35643382E+02  d E =0.216075E-05
       N       E                     dE             d eps       ncg     rms          rms(c)
DAV:   1    -0.356433779375E+02    0.39863E-05   -0.28002E-03    96   0.475E-01    0.115E-02
DAV:   2    -0.356433787090E+02   -0.77146E-06   -0.30760E-05    64   0.483E-02    0.724E-03
DAV:   3    -0.356433791393E+02   -0.43031E-06   -0.47571E-06    64   0.200E-02    0.188E-03
DAV:   4    -0.356433793388E+02   -0.19946E-06   -0.12251E-06    48   0.898E-03    0.785E-04
DAV:   5    -0.356433794067E+02   -0.67881E-07   -0.36135E-07    48   0.436E-03    0.299E-04
DAV:   6    -0.356433794656E+02   -0.58912E-07   -0.15165E-07    48   0.240E-03
  50 F= -.35643379E+02 E0= -.35643379E+02  d E =0.248858E-05
       N       E                     dE             d eps       ncg     rms          rms(c)
DAV:   1    -0.356433738857E+02    0.55210E-05   -0.48007E-03    96   0.620E-01    0.150E-02
DAV:   2    -0.356433752577E+02   -0.13720E-05   -0.52565E-05    64   0.628E-02    0.947E-03
DAV:   3    -0.356433759950E+02   -0.73728E-06   -0.80569E-06    64   0.260E-02    0.244E-03
DAV:   4    -0.356433763367E+02   -0.34171E-06   -0.20629E-06    48   0.117E-02    0.986E-04
DAV:   5    -0.356433764674E+02   -0.13072E-06   -0.59125E-07    48   0.562E-03    0.360E-04
DAV:   6    -0.356433765725E+02   -0.10511E-06   -0.23250E-07    48   0.309E-03
  51 F= -.35643377E+02 E0= -.35643377E+02  d E =0.289304E-05
       N       E                     dE             d eps       ncg     rms          rms(c)
DAV:   1    -0.356433704583E+02    0.60092E-05   -0.74238E-03    96   0.768E-01    0.186E-02
DAV:   2    -0.356433726060E+02   -0.21477E-05   -0.81086E-05    64   0.777E-02    0.118E-02
DAV:   3    -0.356433737526E+02   -0.11466E-05   -0.12370E-05    64   0.321E-02    0.299E-03
DAV:   4    -0.356433742908E+02   -0.53820E-06   -0.31593E-06    48   0.144E-02    0.119E-03
DAV:   5    -0.356433745130E+02   -0.22224E-06   -0.89294E-07    48   0.689E-03    0.418E-04
DAV:   6    -0.356433746736E+02   -0.16061E-06   -0.33925E-07    48   0.378E-03
  52 F= -.35643375E+02 E0= -.35643375E+02  d E =0.189889E-05
       N       E                     dE             d eps       ncg     rms          rms(c)
DAV:   1    -0.356433692546E+02    0.52584E-05   -0.10260E-02    96   0.900E-01    0.219E-02
DAV:   2    -0.356433721181E+02   -0.28634E-05   -0.11245E-04    64   0.913E-02    0.139E-02
DAV:   3    -0.356433737496E+02   -0.16315E-05   -0.17193E-05    64   0.378E-02    0.352E-03
DAV:   4    -0.356433745203E+02   -0.77067E-06   -0.43787E-06    48   0.169E-02    0.142E-03
DAV:   5    -0.356433748539E+02   -0.33362E-06   -0.12262E-06    48   0.808E-03    0.508E-04
DAV:   6    -0.356433750860E+02   -0.23207E-06   -0.45634E-07    48   0.443E-03
  53 F= -.35643375E+02 E0= -.35643375E+02  d E =-.412354E-06
       N       E                     dE             d eps       ncg     rms          rms(c)
DAV:   1    -0.356433719084E+02    0.29456E-05   -0.11357E-02    96   0.948E-01    0.235E-02
DAV:   2    -0.356433744470E+02   -0.25386E-05   -0.12589E-04    64   0.971E-02    0.148E-02
DAV:   3    -0.356433762843E+02   -0.18373E-05   -0.19946E-05    64   0.405E-02    0.376E-03
DAV:   4    -0.356433771936E+02   -0.90932E-06   -0.49509E-06    48   0.181E-02    0.170E-03
DAV:   5    -0.356433776268E+02   -0.43316E-06   -0.13693E-06    48   0.874E-03    0.688E-04
DAV:   6    -0.356433779552E+02   -0.32842E-06   -0.50748E-07    48   0.480E-03
  54 F= -.35643378E+02 E0= -.35643378E+02  d E =-.286924E-05
       N       E                     dE             d eps       ncg     rms          rms(c)
DAV:   1    -0.356433784333E+02   -0.80652E-06   -0.40433E-06    48   0.188E-02    0.472E-04
DAV:   2    -0.356433786243E+02   -0.19093E-06   -0.28798E-07    48   0.501E-03    0.306E-04
DAV:   3    -0.356433788215E+02   -0.19729E-06   -0.72906E-08    48   0.178E-03    0.190E-04
DAV:   4    -0.356433791394E+02   -0.31784E-06   -0.48736E-08    48   0.997E-04    0.502E-05
DAV:   5    -0.356433792770E+02   -0.13764E-06   -0.39627E-08    48   0.557E-04    0.488E-05
DAV:   6    -0.356433794706E+02   -0.19362E-06   -0.38185E-08    48   0.375E-04
  55 F= -.35643379E+02 E0= -.35643379E+02  d E =-.151542E-05
       N       E                     dE             d eps       ncg     rms          rms(c)
DAV:   1    -0.356433798986E+02   -0.62161E-06   -0.14253E-05    96   0.354E-02    0.825E-04
DAV:   2    -0.356433800212E+02   -0.12253E-06   -0.76201E-07    48   0.852E-03    0.505E-04
DAV:   3    -0.356433800952E+02   -0.74061E-07   -0.12459E-07    48   0.263E-03    0.295E-04
DAV:   4    -0.356433801918E+02   -0.96590E-07   -0.57879E-08    48   0.138E-03    0.621E-05
DAV:   5    -0.356433802288E+02   -0.37026E-07   -0.42250E-08    48   0.675E-04    0.671E-05
DAV:   6    -0.356433802410E+02   -0.12206E-07   -0.36650E-08    48   0.361E-04
  56 F= -.35643380E+02 E0= -.35643380E+02  d E =-.770406E-06
       N       E                     dE             d eps       ncg     rms          rms(c)
DAV:   1    -0.356433804480E+02   -0.21917E-06   -0.28527E-05    48   0.498E-02    0.114E-03
DAV:   2    -0.356433805973E+02   -0.14933E-06   -0.14757E-06    48   0.120E-02    0.691E-04
DAV:   3    -0.356433806454E+02   -0.48019E-07   -0.21707E-07    48   0.367E-03    0.381E-04
DAV:   4    -0.356433806811E+02   -0.35694E-07   -0.80663E-08    60   0.181E-03    0.922E-05
DAV:   5    -0.356433806961E+02   -0.15000E-07   -0.49906E-08    48   0.891E-04    0.840E-05
DAV:   6    -0.356433807047E+02   -0.86668E-08   -0.39674E-08    48   0.495E-04
  57 F= -.35643381E+02 E0= -.35643381E+02  d E =-.463673E-06
       N       E                     dE             d eps       ncg     rms          rms(c)
DAV:   1    -0.356433808683E+02   -0.17224E-06   -0.45403E-05    48   0.625E-02    0.144E-03
DAV:   2    -0.356433810638E+02   -0.19546E-06   -0.23088E-06    48   0.150E-02    0.868E-04
DAV:   3    -0.356433810993E+02   -0.35541E-07   -0.32232E-07    48   0.461E-03    0.477E-04
DAV:   4    -0.356433811096E+02   -0.10285E-07   -0.10376E-07    48   0.221E-03    0.146E-04
DAV:   5    -0.356433811140E+02   -0.44156E-08   -0.53962E-08    48   0.109E-03    0.103E-04
DAV:   6    -0.356433811163E+02   -0.22765E-08   -0.38258E-08    48   0.619E-04
  58 F= -.35643381E+02 E0= -.35643381E+02  d E =-.411550E-06
       N       E                     dE             d eps       ncg     rms          rms(c)
DAV:   1    -0.356433812021E+02   -0.88143E-07   -0.64094E-05    48   0.741E-02    0.173E-03
DAV:   2    -0.356433814683E+02   -0.26614E-06   -0.32442E-06    48   0.178E-02    0.105E-03
DAV:   3    -0.356433815086E+02   -0.40356E-07   -0.44010E-07    48   0.550E-03    0.603E-04
DAV:   4    -0.356433815171E+02   -0.85004E-08   -0.13234E-07    48   0.264E-03    0.207E-04
DAV:   5    -0.356433815206E+02   -0.35009E-08   -0.60583E-08    48   0.129E-03    0.129E-04
DAV:   6    -0.356433815225E+02   -0.18335E-08   -0.39038E-08    48   0.742E-04
  59 F= -.35643382E+02 E0= -.35643382E+02  d E =-.406195E-06
       N       E                     dE             d eps       ncg     rms          rms(c)
DAV:   1    -0.356433814761E+02    0.44531E-07   -0.82219E-05    48   0.839E-02    0.196E-03
DAV:   2    -0.356433818182E+02   -0.34210E-06   -0.41601E-06    48   0.202E-02    0.119E-03
DAV:   3    -0.356433818694E+02   -0.51150E-07   -0.55617E-07    48   0.625E-03    0.689E-04
DAV:   4    -0.356433818799E+02   -0.10533E-07   -0.16147E-07    48   0.301E-03    0.239E-04
DAV:   5    -0.356433818850E+02   -0.50998E-08   -0.68685E-08    48   0.147E-03    0.150E-04
DAV:   6    -0.356433818885E+02   -0.35127E-08   -0.41044E-08    48   0.847E-04
  60 F= -.35643382E+02 E0= -.35643382E+02  d E =-.366034E-06
       N       E                     dE             d eps       ncg     rms          rms(c)
DAV:   1    -0.356433817432E+02    0.14183E-06   -0.11872E-04    64   0.101E-01    0.230E-03
DAV:   2    -0.356433822513E+02   -0.50811E-06   -0.59947E-06    48   0.244E-02    0.140E-03
DAV:   3    -0.356433823323E+02   -0.81038E-07   -0.78824E-07    48   0.748E-03    0.778E-04
DAV:   4    -0.356433823489E+02   -0.16580E-07   -0.21797E-07    48   0.358E-03    0.243E-04
DAV:   5    -0.356433823561E+02   -0.71936E-08   -0.86490E-08    48   0.176E-03    0.171E-04
DAV:   6    -0.356433823605E+02   -0.43826E-08   -0.46372E-08    48   0.102E-03
  61 F= -.35643382E+02 E0= -.35643382E+02  d E =-.471963E-06
       N       E                     dE             d eps       ncg     rms          rms(c)
DAV:   1    -0.356433827894E+02   -0.43335E-06   -0.16565E-04    96   0.117E-01    0.272E-03
DAV:   2    -0.356433828371E+02   -0.47644E-07   -0.18831E-06    48   0.120E-02    0.171E-03
DAV:   3    -0.356433828571E+02   -0.20016E-07   -0.32180E-07    48   0.497E-03    0.531E-04
DAV:   4    -0.356433828693E+02   -0.12216E-07   -0.10437E-07    48   0.236E-03    0.194E-04
DAV:   5    -0.356433828767E+02   -0.74097E-08   -0.48436E-08    48   0.119E-03    0.732E-05
DAV:   6    -0.356433828852E+02   -0.85367E-08   -0.34220E-08    48   0.658E-04
  62 F= -.35643383E+02 E0= -.35643383E+02  d E =-.524788E-06
       N       E                     dE             d eps       ncg     rms          rms(c)
DAV:   1    -0.356433833516E+02   -0.47487E-06   -0.17961E-04    96   0.121E-01    0.278E-03
DAV:   2    -0.356433834070E+02   -0.55432E-07   -0.19725E-06    48   0.123E-02    0.178E-03
DAV:   3    -0.356433834336E+02   -0.26627E-07   -0.34699E-07    48   0.520E-03    0.520E-04
DAV:   4    -0.356433834486E+02   -0.14988E-07   -0.11052E-07    48   0.245E-03    0.217E-04
DAV:   5    -0.356433834572E+02   -0.86027E-08   -0.48487E-08    48   0.122E-03    0.793E-05
DAV:   6    -0.356433834669E+02   -0.96420E-08   -0.34448E-08    48   0.685E-04
  63 F= -.35643383E+02 E0= -.35643383E+02  d E =-.581626E-06
       N       E                     dE             d eps       ncg     rms          rms(c)
DAV:   1    -0.356433834920E+02   -0.34731E-07   -0.10116E-07    48   0.260E-03    0.801E-05
DAV:   2    -0.356433834988E+02   -0.68555E-08   -0.31220E-08    48   0.679E-04    0.517E-05
DAV:   3    -0.356433835078E+02   -0.89358E-08   -0.27578E-08    48   0.240E-04    0.281E-05
DAV:   4    -0.356433835207E+02   -0.12912E-07   -0.27533E-08    48   0.141E-04    0.941E-06
DAV:   5    -0.356433835274E+02   -0.66904E-08   -0.27665E-08    48   0.763E-05    0.807E-06
DAV:   6    -0.356433835401E+02   -0.12785E-07   -0.28230E-08    48   0.653E-05
  64 F= -.35643384E+02 E0= -.35643384E+02  d E =-.732679E-07
       N       E                     dE             d eps       ncg     rms          rms(c)
DAV:   1    -0.356433835750E+02   -0.47649E-07   -0.41128E-07    48   0.583E-03    0.155E-04
DAV:   2    -0.356433835791E+02   -0.40682E-08   -0.48274E-08    48   0.141E-03    0.924E-05
DAV:   3    -0.356433835824E+02   -0.33401E-08   -0.31319E-08    48   0.433E-04    0.524E-05
DAV:   4    -0.356433835867E+02   -0.42940E-08   -0.30158E-08    48   0.240E-04    0.128E-05
DAV:   5    -0.356433835882E+02   -0.15243E-08   -0.29946E-08    48   0.117E-04    0.130E-05
DAV:   6    -0.356433835893E+02   -0.10189E-08   -0.29982E-08    48   0.601E-05
  65 F= -.35643384E+02 E0= -.35643384E+02  d E =-.491095E-07
       N       E                     dE             d eps       ncg     rms          rms(c)
DAV:   1    -0.356433836288E+02   -0.40520E-07   -0.11943E-06    48   0.101E-02    0.258E-04
DAV:   2    -0.356433836336E+02   -0.48597E-08   -0.88867E-08    48   0.242E-03    0.154E-04
DAV:   3    -0.356433836355E+02   -0.18417E-08   -0.37991E-08    48   0.737E-04    0.792E-05
DAV:   4    -0.356433836365E+02   -0.10930E-08   -0.33262E-08    48   0.376E-04    0.202E-05
DAV:   5    -0.356433836370E+02   -0.49522E-09   -0.32166E-08    48   0.184E-04    0.191E-05
DAV:   6    -0.356433836371E+02   -0.48203E-10   -0.31894E-08    48   0.101E-04
  66 F= -.35643384E+02 E0= -.35643384E+02  d E =-.478389E-07
       N       E                     dE             d eps       ncg     rms          rms(c)
DAV:   1    -0.356433836717E+02   -0.34637E-07   -0.29164E-06    48   0.157E-02    0.393E-04
DAV:   2    -0.356433836834E+02   -0.11724E-07   -0.17422E-07    48   0.377E-03    0.236E-04
DAV:   3    -0.356433836867E+02   -0.33281E-08   -0.49562E-08    48   0.114E-03    0.113E-04
DAV:   4    -0.356433836875E+02   -0.75738E-09   -0.37087E-08    48   0.554E-04    0.321E-05
DAV:   5    -0.356433836876E+02   -0.99590E-10   -0.34166E-08    48   0.274E-04    0.268E-05
DAV:   6    -0.356433836877E+02   -0.87539E-10   -0.33338E-08    48   0.156E-04
  67 F= -.35643384E+02 E0= -.35643384E+02  d E =-.505848E-07
       N       E                     dE             d eps       ncg     rms          rms(c)
DAV:   1    -0.356433837065E+02   -0.18879E-07   -0.64071E-06    48   0.233E-02    0.575E-04
DAV:   2    -0.356433837331E+02   -0.26639E-07   -0.34560E-07    48   0.558E-03    0.347E-04
DAV:   3    -0.356433837396E+02   -0.64460E-08   -0.71045E-08    48   0.168E-03    0.165E-04
DAV:   4    -0.356433837411E+02   -0.15646E-08   -0.43078E-08    48   0.803E-04    0.503E-05
DAV:   5    -0.356433837411E+02    0.18190E-10   -0.36668E-08    48   0.399E-04    0.384E-05
DAV:   6    -0.356433837409E+02    0.18804E-09   -0.34608E-08    48   0.229E-04
  68 F= -.35643384E+02 E0= -.35643384E+02  d E =-.532350E-07
       N       E                     dE             d eps       ncg     rms          rms(c)
DAV:   1    -0.356433837219E+02    0.19159E-07   -0.13054E-05    48   0.332E-02    0.813E-04
DAV:   2    -0.356433837762E+02   -0.54309E-07   -0.67232E-07    48   0.797E-03    0.494E-04
DAV:   3    -0.356433837882E+02   -0.11928E-07   -0.11099E-07    48   0.240E-03    0.238E-04
DAV:   4    -0.356433837911E+02   -0.29515E-08   -0.53741E-08    48   0.114E-03    0.741E-05
DAV:   5    -0.356433837913E+02   -0.21919E-09   -0.40586E-08    48   0.566E-04    0.548E-05
DAV:   6    -0.356433837912E+02    0.13233E-09   -0.36417E-08    48   0.326E-04
  69 F= -.35643384E+02 E0= -.35643384E+02  d E =-.503048E-07
       N       E                     dE             d eps       ncg     rms          rms(c)
DAV:   1    -0.356433836707E+02    0.12061E-06   -0.31929E-05    48   0.519E-02    0.126E-03
DAV:   2    -0.356433838030E+02   -0.13227E-06   -0.16012E-06    48   0.125E-02    0.771E-04
DAV:   3    -0.356433838298E+02   -0.26820E-07   -0.22273E-07    48   0.375E-03    0.377E-04
DAV:   4    -0.356433838360E+02   -0.62100E-08   -0.82663E-08    48   0.178E-03    0.116E-04
DAV:   5    -0.356433838367E+02   -0.64824E-09   -0.50608E-08    48   0.883E-04    0.858E-05
DAV:   6    -0.356433838368E+02   -0.15643E-09   -0.40439E-08    48   0.507E-04
  70 F= -.35643384E+02 E0= -.35643384E+02  d E =-.456305E-07
       N       E                     dE             d eps       ncg     rms          rms(c)
DAV:   1    -0.356433834336E+02    0.40305E-06   -0.76274E-05    48   0.803E-02    0.193E-03
DAV:   2    -0.356433837489E+02   -0.31530E-06   -0.37888E-06    48   0.193E-02    0.119E-03
DAV:   3    -0.356433838084E+02   -0.59506E-07   -0.48491E-07    48   0.580E-03    0.583E-04
DAV:   4    -0.356433838215E+02   -0.13020E-07   -0.14949E-07    48   0.276E-03    0.175E-04
DAV:   5    -0.356433838241E+02   -0.25950E-08   -0.73109E-08    48   0.136E-03    0.132E-04
DAV:   6    -0.356433838246E+02   -0.57594E-09   -0.48762E-08    48   0.781E-04
  71 F= -.35643384E+02 E0= -.35643384E+02  d E =0.122080E-07
       N       E                     dE             d eps       ncg     rms          rms(c)
DAV:   1    -0.356433836641E+02    0.15992E-06   -0.18367E-04    96   0.122E-01    0.300E-03
DAV:   2    -0.356433836937E+02   -0.29547E-07   -0.20923E-06    48   0.125E-02    0.189E-03
DAV:   3    -0.356433837285E+02   -0.34844E-07   -0.36845E-07    48   0.526E-03    0.490E-04
DAV:   4    -0.356433837426E+02   -0.14053E-07   -0.12138E-07    48   0.237E-03    0.227E-04
DAV:   5    -0.356433837472E+02   -0.46259E-08   -0.61775E-08    48   0.116E-03    0.940E-05
DAV:   6    -0.356433837534E+02   -0.61839E-08   -0.47284E-08    48   0.646E-04
  72 F= -.35643384E+02 E0= -.35643384E+02  d E =0.712467E-07
       N       E                     dE             d eps       ncg     rms          rms(c)
DAV:   1    -0.356433834396E+02    0.30763E-06   -0.36892E-04    96   0.173E-01    0.423E-03
DAV:   2    -0.356433835098E+02   -0.70200E-07   -0.41374E-06    48   0.177E-02    0.267E-03
DAV:   3    -0.356433835760E+02   -0.66177E-07   -0.68144E-07    48   0.736E-03    0.696E-04
DAV:   4    -0.356433836041E+02   -0.28179E-07   -0.19809E-07    48   0.330E-03    0.309E-04
DAV:   5    -0.356433836140E+02   -0.98205E-08   -0.82680E-08    48   0.160E-03    0.125E-04
DAV:   6    -0.356433836252E+02   -0.11291E-07   -0.54998E-08    48   0.887E-04
  73 F= -.35643384E+02 E0= -.35643384E+02  d E =0.128144E-06
       N       E                     dE             d eps       ncg     rms          rms(c)
DAV:   1    -0.356433828638E+02    0.75016E-06   -0.67459E-04    96   0.233E-01    0.570E-03
DAV:   2    -0.356433830139E+02   -0.15013E-06   -0.75379E-06    60   0.239E-02    0.360E-03
DAV:   3    -0.356433831249E+02   -0.11101E-06   -0.11974E-06    48   0.988E-03    0.942E-04
DAV:   4    -0.356433831754E+02   -0.50432E-07   -0.32628E-07    48   0.444E-03    0.402E-04
DAV:   5    -0.356433831927E+02   -0.17350E-07   -0.11759E-07    48   0.216E-03    0.157E-04
DAV:   6    -0.356433832110E+02   -0.18324E-07   -0.67123E-08    48   0.119E-03
  74 F= -.35643383E+02 E0= -.35643383E+02  d E =0.414207E-06
