 vasp.5.4.1 24Jun15 (build Jan 13 2020 12:58:22) complex                        
  
 executed on           IFC91_ompi date 2020.02.05  18:18:08
 running on   15 total cores
 each image running on    1 cores
 distrk:  each k-point on    1 cores,    1 groups
 distr:  one band on NCORES_PER_BAND=   1 cores,    1 groups


--------------------------------------------------------------------------------------------------------


 INCAR:
 POTCAR:    PAW_PBE H 15Jun2001                   
 POTCAR:    PAW_PBE C 08Apr2002                   
 POTCAR:    PAW_PBE N 08Apr2002                   
 POTCAR:    PAW_PBE H 15Jun2001                   
   VRHFIN =H: ultrasoft test                                                    
   LEXCH  = PE                                                                  
   EATOM  =    12.4884 eV,    0.9179 Ry                                         
                                                                                
   TITEL  = PAW_PBE H 15Jun2001                                                 
   LULTRA =        F    use ultrasoft PP ?                                      
   IUNSCR =        0    unscreen: 0-lin 1-nonlin 2-no                           
   RPACOR =    0.000    partial core radius                                     
   POMASS =    1.000; ZVAL   =    1.000    mass and valenz                      
   RCORE  =    1.100    outmost cutoff radius                                   
   RWIGS  =    0.700; RWIGS  =    0.370    wigner-seitz radius (au A)           
   ENMAX  =  250.000; ENMIN  =  200.000 eV                                      
   RCLOC  =    0.701    cutoff for local pot                                    
   LCOR   =        T    correct aug charges                                     
   LPAW   =        T    paw PP                                                  
   EAUG   =  400.000                                                            
   RMAX   =    1.123    core radius for proj-oper                               
   RAUG   =    1.200    factor for augmentation sphere                          
   RDEP   =    1.112    radius for radial grids                                 
   RDEPT  =    0.926    core radius for aug-charge                              
                                                                                
   Atomic configuration                                                         
    2 entries                                                                   
     n  l   j            E        occ.                                          
     1  0  0.50        -6.4927   1.0000                                         
     2  1  0.50        -3.4015   0.0000                                         
   Description                                                                  
     l       E           TYP  RCUT    TYP  RCUT                                 
     0     -6.4927494     23  1.100                                             
     0      6.8029130     23  1.100                                             
     1     -4.0817478     23  1.100                                             
  local pseudopotential read in
  atomic valenz-charges read in
  non local Contribution for L=           0  read in
    real space projection operators read in
  non local Contribution for L=           0  read in
    real space projection operators read in
  non local Contribution for L=           1  read in
    real space projection operators read in
    PAW grid and wavefunctions read in
 
   number of l-projection  operators is LMAX  =           3
   number of lm-projection operators is LMMAX =           5
 
 POTCAR:    PAW_PBE C 08Apr2002                   
   VRHFIN =C: s2p2                                                              
   LEXCH  = PE                                                                  
   EATOM  =   147.1560 eV,   10.8157 Ry                                         
                                                                                
   TITEL  = PAW_PBE C 08Apr2002                                                 
   LULTRA =        F    use ultrasoft PP ?                                      
   IUNSCR =        1    unscreen: 0-lin 1-nonlin 2-no                           
   RPACOR =    1.200    partial core radius                                     
   POMASS =   12.011; ZVAL   =    4.000    mass and valenz                      
   RCORE  =    1.500    outmost cutoff radius                                   
   RWIGS  =    1.630; RWIGS  =    0.863    wigner-seitz radius (au A)           
   ENMAX  =  400.000; ENMIN  =  300.000 eV                                      
   ICORE  =        2    local potential                                         
   LCOR   =        T    correct aug charges                                     
   LPAW   =        T    paw PP                                                  
   EAUG   =  644.873                                                            
   DEXC   =    0.000                                                            
   RMAX   =    1.529    core radius for proj-oper                               
   RAUG   =    1.300    factor for augmentation sphere                          
   RDEP   =    1.501    radius for radial grids                                 
   RDEPT  =    1.300    core radius for aug-charge                              
                                                                                
   Atomic configuration                                                         
    4 entries                                                                   
     n  l   j            E        occ.                                          
     1  0  0.50      -273.3789   2.0000                                         
     2  0  0.50       -13.7508   2.0000                                         
     2  1  0.50        -5.2854   2.0000                                         
     3  2  1.50        -5.4423   0.0000                                         
   Description                                                                  
     l       E           TYP  RCUT    TYP  RCUT                                 
     0    -13.7508458     23  1.200                                             
     0     -8.2022199     23  1.200                                             
     1     -5.2854383     23  1.500                                             
     1     34.0145650     23  1.500                                             
     2     -5.4423304      7  1.500                                             
  local pseudopotential read in
  partial core-charges read in
  partial kinetic energy density read in
  atomic valenz-charges read in
  non local Contribution for L=           0  read in
    real space projection operators read in
  non local Contribution for L=           0  read in
    real space projection operators read in
  non local Contribution for L=           1  read in
    real space projection operators read in
  non local Contribution for L=           1  read in
    real space projection operators read in
    PAW grid and wavefunctions read in
 
   number of l-projection  operators is LMAX  =           4
   number of lm-projection operators is LMMAX =           8
 
 POTCAR:    PAW_PBE N 08Apr2002                   
   VRHFIN =N: s2p3                                                              
   LEXCH  = PE                                                                  
   EATOM  =   264.5486 eV,   19.4438 Ry                                         
                                                                                
   TITEL  = PAW_PBE N 08Apr2002                                                 
   LULTRA =        F    use ultrasoft PP ?                                      
   IUNSCR =        1    unscreen: 0-lin 1-nonlin 2-no                           
   RPACOR =    1.200    partial core radius                                     
   POMASS =   14.001; ZVAL   =    5.000    mass and valenz                      
   RCORE  =    1.500    outmost cutoff radius                                   
   RWIGS  =    1.400; RWIGS  =    0.741    wigner-seitz radius (au A)           
   ENMAX  =  400.000; ENMIN  =  300.000 eV                                      
   ICORE  =        2    local potential                                         
   LCOR   =        T    correct aug charges                                     
   LPAW   =        T    paw PP                                                  
   EAUG   =  627.112                                                            
   DEXC   =    0.000                                                            
   RMAX   =    1.529    core radius for proj-oper                               
   RAUG   =    1.300    factor for augmentation sphere                          
   RDEP   =    1.514    radius for radial grids                                 
   RDEPT  =    1.338    core radius for aug-charge                              
                                                                                
   Atomic configuration                                                         
    4 entries                                                                   
     n  l   j            E        occ.                                          
     1  0  0.50      -384.7179   2.0000                                         
     2  0  0.50       -18.5828   2.0000                                         
     2  1  0.50        -7.0898   3.0000                                         
     3  2  1.50        -6.8029   0.0000                                         
   Description                                                                  
     l       E           TYP  RCUT    TYP  RCUT                                 
     0    -18.5828119     23  1.200                                             
     0    -13.5018863     23  1.200                                             
     1     -7.0897853     23  1.500                                             
     1      9.5240782     23  1.500                                             
     2     -6.8029130      7  1.500                                             
  local pseudopotential read in
  partial core-charges read in
  partial kinetic energy density read in
  atomic valenz-charges read in
  non local Contribution for L=           0  read in
    real space projection operators read in
  non local Contribution for L=           0  read in
    real space projection operators read in
  non local Contribution for L=           1  read in
    real space projection operators read in
  non local Contribution for L=           1  read in
    real space projection operators read in
    PAW grid and wavefunctions read in
 
   number of l-projection  operators is LMAX  =           4
   number of lm-projection operators is LMMAX =           8
 

 ----------------------------------------------------------------------------- 
|                                                                             |
|  ADVICE TO THIS USER RUNNING 'VASP/VAMP'   (HEAR YOUR MASTER'S VOICE ...):  |
|                                                                             |
|      You have a (more or less) 'small supercell' and for smaller cells      |
|      it is recommended  to use the reciprocal-space projection scheme!      |
|      The real space optimization is not  efficient for small cells and it   |
|      is also less accurate ...                                              |
|      Therefore set LREAL=.FALSE. in the  INCAR file                         |
|                                                                             |
 ----------------------------------------------------------------------------- 

 Optimization of the real space projectors (new method)

 maximal supplied QI-value         = 34.20
 optimisation between [QCUT,QGAM] = [  9.92, 20.18] = [ 27.55,114.04] Ry 
 Optimized for a Real-space Cutoff    1.26 Angstroem

   l    n(q)    QCUT    max X(q) W(low)/X(q) W(high)/X(q)  e(spline) 
   0      8     9.919    19.460    0.50E-03    0.23E-03    0.29E-06
   0      8     9.919    12.209    0.48E-03    0.23E-03    0.28E-06
   1      7     9.919     4.655    0.17E-03    0.75E-03    0.30E-06
 Optimization of the real space projectors (new method)

 maximal supplied QI-value         = 25.13
 optimisation between [QCUT,QGAM] = [ 10.05, 20.36] = [ 28.30,116.06] Ry 
 Optimized for a Real-space Cutoff    1.30 Angstroem

   l    n(q)    QCUT    max X(q) W(low)/X(q) W(high)/X(q)  e(spline) 
   0      8    10.053   115.676    0.49E-03    0.72E-03    0.18E-06
   0      8    10.053    87.132    0.49E-03    0.71E-03    0.18E-06
   1      7    10.053     4.429    0.32E-03    0.31E-03    0.18E-06
   1      7    10.053     2.733    0.23E-03    0.19E-03    0.20E-06
 Optimization of the real space projectors (new method)

 maximal supplied QI-value         = 25.13
 optimisation between [QCUT,QGAM] = [ 10.05, 20.36] = [ 28.30,116.06] Ry 
 Optimized for a Real-space Cutoff    1.65 Angstroem

   l    n(q)    QCUT    max X(q) W(low)/X(q) W(high)/X(q)  e(spline) 
   0     10    10.053    79.467    0.76E-04    0.72E-04    0.56E-06
   0     10    10.053    66.151    0.76E-04    0.72E-04    0.55E-06
   1     10    10.053     8.350    0.25E-03    0.92E-03    0.41E-05
   1     10    10.053     5.531    0.27E-03    0.10E-02    0.45E-05
  PAW_PBE H 15Jun2001                   :
 energy of atom  1       EATOM=  -12.4884
 kinetic energy error for atom=    0.0098 (will be added to EATOM!!)
  PAW_PBE C 08Apr2002                   :
 energy of atom  2       EATOM= -147.1560
 kinetic energy error for atom=    0.0288 (will be added to EATOM!!)
  PAW_PBE N 08Apr2002                   :
 energy of atom  3       EATOM= -264.5486
 kinetic energy error for atom=    0.0736 (will be added to EATOM!!)
 
 
 POSCAR: H3 C2 N1                                
  positions in direct lattice
  velocities in cartesian coordinates
 exchange correlation table for  LEXCH =        8
   RHO(1)=    0.500       N(1)  =     2000
   RHO(2)=  100.500       N(2)  =     4000

 VTST: version 3.2, (02/03/18)

 CHAIN: initializing optimizer
 
 OPT: Using FIRE optimizer
 OPT: FIRE, Init
 OPT: FIRE, MAXMOVE       0.20000
 OPT: FIRE, TIMESTEP      0.10000
 OPT: FIRE, FTIMEMAX      1.00000
 OPT: FIRE, FTIMEINC      1.10000
 OPT: FIRE, FTIMEDEC      0.50000
 OPT: FIRE, FALPHADEC     0.99000
 OPT: FIRE, FALPHA        0.10000
 OPT: FIRE, FNMIN         5
 
 CHAIN: Read ICHAIN            0
 CHAIN: Running the NEB
 NEB:          SPRING     -5.000000
 NEB:          LCLIMB      T
 NEB:     LTANGENTOLD      F
 NEB:           LDNEB      F
 NEB:        LDNEBORG      F
 NEB:        LNEBCELL      F
 NEB:          EFIRST      0.000000
 NEB:           ELAST      0.000000
 
 POSCAR: H3 C2 N1                                
  positions in direct lattice
  No initial velocities read in
 
 POSCAR: H3 C2 N1                                
  positions in direct lattice
  No initial velocities read in
 


--------------------------------------------------------------------------------------------------------


 ion  position               nearest neighbor table
   1  0.481  0.462  0.519-   4 1.10
   2  0.463  0.503  0.479-   4 1.10
   3  0.480  0.519  0.534-   4 1.10
   4  0.486  0.496  0.507-   2 1.10   3 1.10   1 1.10   6 1.42
   5  0.568  0.504  0.479-   6 1.18
   6  0.531  0.501  0.492-   5 1.18   4 1.42
 
  LATTYP: Found a simple cubic cell.
 ALAT       =    30.0000000000
  
  Lattice vectors:
  
 A1 = (  30.0000000000,   0.0000000000,   0.0000000000)
 A2 = (   0.0000000000,  30.0000000000,   0.0000000000)
 A3 = (   0.0000000000,   0.0000000000,  30.0000000000)


Analysis of symmetry for initial positions (statically):
=====================================================================
 Subroutine PRICEL returns:
 Original cell was already a primitive cell.
 

 Routine SETGRP: Setting up the symmetry group for a 
 simple cubic supercell.


 Subroutine GETGRP returns: Found  1 space group operations
 (whereof  1 operations were pure point group operations)
 out of a pool of 48 trial point group operations.


The static configuration has the point symmetry C_1 .


Analysis of symmetry for dynamics (positions and initial velocities):
=====================================================================
 Subroutine PRICEL returns:
 Original cell was already a primitive cell.
 

 Routine SETGRP: Setting up the symmetry group for a 
 simple cubic supercell.


 Subroutine GETGRP returns: Found  1 space group operations
 (whereof  1 operations were pure point group operations)
 out of a pool of 48 trial point group operations.


The dynamic configuration has the point symmetry C_1 .
 
 
 KPOINTS: Mo2C                                    

Automatic generation of k-mesh.
Space group operators:
 irot       det(A)        alpha          n_x          n_y          n_z        tau_x        tau_y        tau_z
    1     1.000000     0.000000     1.000000     0.000000     0.000000     0.000000     0.000000     0.000000
 
 Subroutine IBZKPT returns following result:
 ===========================================
 
 Found      4 irreducible k-points:
 
 Following reciprocal coordinates:
            Coordinates               Weight
  0.250000  0.250000  0.250000      2.000000
 -0.250000  0.250000  0.250000      2.000000
  0.250000 -0.250000  0.250000      2.000000
 -0.250000 -0.250000  0.250000      2.000000
 
 Following cartesian coordinates:
            Coordinates               Weight
  0.008333  0.008333  0.008333      2.000000
 -0.008333  0.008333  0.008333      2.000000
  0.008333 -0.008333  0.008333      2.000000
 -0.008333 -0.008333  0.008333      2.000000
 


--------------------------------------------------------------------------------------------------------




 Dimension of arrays:
   k-points           NKPTS =      4   k-points in BZ     NKDIM =      4   number of bands    NBANDS=     12
   number of dos      NEDOS =    301   number of ions     NIONS =      6
   non local maximal  LDIM  =      4   non local SUM 2l+1 LMDIM =      8
   total plane-waves  NPLWV = ******
   max r-space proj   IRMAX =   2395   max aug-charges    IRDMAX=   1738
   dimension x,y,z NGX =   150 NGY =  150 NGZ =  150
   dimension x,y,z NGXF=   300 NGYF=  300 NGZF=  300
   support grid    NGXF=   300 NGYF=  300 NGZF=  300
   ions per type =               3   2   1
 NGX,Y,Z   is equivalent  to a cutoff of   8.31,  8.31,  8.31 a.u.
 NGXF,Y,Z  is equivalent  to a cutoff of  16.62, 16.62, 16.62 a.u.


 I would recommend the setting:
   dimension x,y,z NGX =   147 NGY =  147 NGZ =  147
 SYSTEM =  unknown system                          
 POSCAR =  H3 C2 N1                                

 Startparameter for this run:
   NWRITE =      2    write-flag & timer
   PREC   = normal    normal or accurate (medium, high low for compatibility)
   ISTART =      0    job   : 0-new  1-cont  2-samecut
   ICHARG =      2    charge: 1-file 2-atom 10-const
   ISPIN  =      1    spin polarized calculation?
   LNONCOLLINEAR =      F non collinear calculations
   LSORBIT =      F    spin-orbit coupling
   INIWAV =      1    electr: 0-lowe 1-rand  2-diag
   LASPH  =      F    aspherical Exc in radial PAW
   METAGGA=      F    non-selfconsistent MetaGGA calc.

 Electronic Relaxation 1
   ENCUT  =  400.0 eV  29.40 Ry    5.42 a.u.  48.92 48.92 48.92*2*pi/ulx,y,z
   ENINI  =  400.0     initial cutoff
   ENAUG  =  644.9 eV  augmentation charge cutoff
   NELM   =    500;   NELMIN=  6; NELMDL= -5     # of ELM steps 
   EDIFF  = 0.1E-03   stopping-criterion for ELM
   LREAL  =      T    real-space projection
   NLSPLINE    = F    spline interpolate recip. space projectors
   LCOMPAT=      F    compatible to vasp.4.4
   GGA_COMPAT  = T    GGA compatible to vasp.4.4-vasp.4.6
   LMAXPAW     = -100 max onsite density
   LMAXMIX     =    2 max onsite mixed and CHGCAR
   VOSKOWN=      0    Vosko Wilk Nusair interpolation
   ROPT   =   -0.00050  -0.00050  -0.00050
 Ionic relaxation
   EDIFFG = -.1E+00   stopping-criterion for IOM
   NSW    =    300    number of steps for IOM
   NBLOCK =      1;   KBLOCK =    300    inner block; outer block 
   IBRION =      3    ionic relax: 0-MD 1-quasi-New 2-CG
   NFREE  =      0    steps in history (QN), initial steepest desc. (CG)
   ISIF   =      2    stress and relaxation
   IWAVPR =     11    prediction:  0-non 1-charg 2-wave 3-comb
   ISYM   =      2    0-nonsym 1-usesym 2-fastsym
   LCORR  =      T    Harris-Foulkes like correction to forces

   POTIM  = 0.0000    time-step for ionic-motion
   TEIN   =    0.0    initial temperature
   TEBEG  =    0.0;   TEEND  =   0.0 temperature during run
   SMASS  =   2.00    Nose mass-parameter (am)
   estimated Nose-frequenzy (Omega)   =  0.12E+10 period in steps =  0.00 mass=   0.137E-25a.u.
   SCALEE = 1.0000    scale energy and forces
   NPACO  =    256;   APACO  = 16.0  distance and # of slots for P.C.
   PSTRESS=    0.0 pullay stress

  Mass of Ions in am
   POMASS =   1.00 12.01 14.00
  Ionic Valenz
   ZVAL   =   1.00  4.00  5.00
  Atomic Wigner-Seitz radii
   RWIGS  =  -1.00 -1.00 -1.00
  virtual crystal weights 
   VCA    =   1.00  1.00  1.00
   NELECT =      16.0000    total number of electrons
   NUPDOWN=      -1.0000    fix difference up-down

 DOS related values:
   EMIN   =  10.00;   EMAX   =-10.00  energy-range for DOS
   EFERMI =   0.00
   ISMEAR =     0;   SIGMA  =   0.20  broadening in eV -4-tet -1-fermi 0-gaus

 Electronic relaxation 2 (details)
   IALGO  =     38    algorithm
   LDIAG  =      T    sub-space diagonalisation (order eigenvalues)
   LSUBROT=      F    optimize rotation matrix (better conditioning)
   TURBO    =      0    0=normal 1=particle mesh
   IRESTART =      0    0=no restart 2=restart with 2 vectors
   NREBOOT  =      0    no. of reboots
   NMIN     =      0    reboot dimension
   EREF     =   0.00    reference energy to select bands
   IMIX   =      4    mixing-type and parameters
     AMIX     =   0.40;   BMIX     =  1.00
     AMIX_MAG =   1.60;   BMIX_MAG =  1.00
     AMIN     =   0.10
     WC   =   100.;   INIMIX=   1;  MIXPRE=   1;  MAXMIX= -45

 Intra band minimization:
   WEIMIN = 0.0010     energy-eigenvalue tresh-hold
   EBREAK =  0.21E-05  absolut break condition
   DEPER  =   0.30     relativ break condition  

   TIME   =   0.40     timestep for ELM

  volume/ion in A,a.u.               =    4500.00     30367.50
  Fermi-wavevector in a.u.,A,eV,Ry     =   0.137508  0.259852  0.257264  0.018908
  Thomas-Fermi vector in A             =   0.790710
 
 Write flags
   LWAVE  =      F    write WAVECAR
   LCHARG =      F    write CHGCAR
   LVTOT  =      F    write LOCPOT, total local potential
   LVHAR  =      F    write LOCPOT, Hartree potential only
   LELF   =      F    write electronic localiz. function (ELF)
   LORBIT =      0    0 simple, 1 ext, 2 COOP (PROOUT)


 Dipole corrections
   LMONO  =      F    monopole corrections only (constant potential shift)
   LDIPOL =      F    correct potential (dipole corrections)
   IDIPOL =      0    1-x, 2-y, 3-z, 4-all directions 
   EPSILON=  1.0000000 bulk dielectric constant

 Exchange correlation treatment:
   GGA     =    PE    GGA type
   LEXCH   =     8    internal setting for exchange type
   VOSKOWN=      0    Vosko Wilk Nusair interpolation
   LHFCALC =     F    Hartree Fock is set to
   LHFONE  =     F    Hartree Fock one center treatment
   AEXX    =    0.0000 exact exchange contribution

 Linear response parameters
   LEPSILON=     F    determine dielectric tensor
   LRPA    =     F    only Hartree local field effects (RPA)
   LNABLA  =     F    use nabla operator in PAW spheres
   LVEL    =     F    velocity operator in full k-point grid
   LINTERFAST=   F  fast interpolation
   KINTER  =     0    interpolate to denser k-point grid
   CSHIFT  =0.1000    complex shift for real part using Kramers Kronig
   OMEGAMAX=  -1.0    maximum frequency
   DEG_THRESHOLD= 0.2000000E-02 threshold for treating states as degnerate
   RTIME   =    0.100 relaxation time in fs

 Orbital magnetization related:
   ORBITALMAG=     F  switch on orbital magnetization
   LCHIMAG   =     F  perturbation theory with respect to B field
   DQ        =  0.001000  dq finite difference perturbation B field



--------------------------------------------------------------------------------------------------------


 quickmin algorithm: (dynamic with friction)
 charge density and potential will be updated during run
 non-spin polarized calculation
 Variant of blocked Davidson
 Davidson routine will perform the subspace rotation
 perform sub-space diagonalisation
    after iterative eigenvector-optimisation
 modified Broyden-mixing scheme, WC =      100.0
 initial mixing is a Kerker type mixing with AMIX =  0.4000 and BMIX =      1.0000
 Hartree-type preconditioning will be used
 using additional bands            4
 real space projection scheme for non local part
 use partial core corrections
 calculate Harris-corrections to forces 
   (improved forces if not selfconsistent)
 use gradient corrections 
 use of overlap-Matrix (Vanderbilt PP)
 Gauss-broadening in eV      SIGMA  =   0.20


--------------------------------------------------------------------------------------------------------


  energy-cutoff  :      400.00
  volume of cell :    27000.00
      direct lattice vectors                 reciprocal lattice vectors
    30.000000000  0.000000000  0.000000000     0.033333333  0.000000000  0.000000000
     0.000000000 30.000000000  0.000000000     0.000000000  0.033333333  0.000000000
     0.000000000  0.000000000 30.000000000     0.000000000  0.000000000  0.033333333

  length of vectors
    30.000000000 30.000000000 30.000000000     0.033333333  0.033333333  0.033333333


 
 k-points in units of 2pi/SCALE and weight: Mo2C                                    
   0.00833333  0.00833333  0.00833333       0.250
  -0.00833333  0.00833333  0.00833333       0.250
   0.00833333 -0.00833333  0.00833333       0.250
  -0.00833333 -0.00833333  0.00833333       0.250
 
 k-points in reciprocal lattice and weights: Mo2C                                    
   0.25000000  0.25000000  0.25000000       0.250
  -0.25000000  0.25000000  0.25000000       0.250
   0.25000000 -0.25000000  0.25000000       0.250
  -0.25000000 -0.25000000  0.25000000       0.250
 
 position of ions in fractional coordinates (direct lattice) 
   0.48051025  0.46172541  0.51897801
   0.46283684  0.50272853  0.47943306
   0.47956546  0.51939364  0.53420145
   0.48609350  0.49585877  0.50689372
   0.56771870  0.50445069  0.47936546
   0.53060966  0.50054594  0.49186994
 
 position of ions in cartesian coordinates  (Angst):
  14.41530736 13.85176237 15.56934016
  13.88510526 15.08185603 14.38299174
  14.38696369 15.58180913 16.02604353
  14.58280487 14.87576305 15.20681159
  17.03156090 15.13352060 14.38096383
  15.91828969 15.01637819 14.75609823
 


--------------------------------------------------------------------------------------------------------


 k-point  1 :   0.2500 0.2500 0.2500  plane waves:  490454
 k-point  2 :  -0.2500 0.2500 0.2500  plane waves:  490454
 k-point  3 :   0.2500-0.2500 0.2500  plane waves:  490454
 k-point  4 :  -0.2500-0.2500 0.2500  plane waves:  490454

 maximum and minimum number of plane-waves per node :    490454   490454

 maximum number of plane-waves:    490454
 maximum index in each direction: 
   IXMAX=   49   IYMAX=   49   IZMAX=   48
   IXMIN=  -49   IYMIN=  -49   IZMIN=  -49

 WARNING: aliasing errors must be expected set NGX to 198 to avoid them
 WARNING: aliasing errors must be expected set NGY to 198 to avoid them
 WARNING: aliasing errors must be expected set NGZ to 196 to avoid them
 aliasing errors are usually negligible using standard VASP settings
 and one can safely disregard these warnings

 serial   3D FFT for wavefunctions
 parallel 3D FFT for charge:
    minimum data exchange during FFTs selected (reduces bandwidth)


 total amount of memory used by VASP on root node  3203889. kBytes
========================================================================

   base      :      30000. kBytes
   nonlr-proj:        693. kBytes
   fftplans  :     924480. kBytes
   grid      :    1872000. kBytes
   one-center:         18. kBytes
   wavefun   :     376698. kBytes
 
     INWAV:  cpu time    0.0010: real time    0.0009
 Broyden mixing: mesh for mixing (old mesh)
   NGX = 97   NGY = 97   NGZ = 97
  (NGX  =300   NGY  =300   NGZ  =300)
  gives a total of 912673 points

 initial charge density was supplied:
 charge density of overlapping atoms calculated
 number of electron      16.0000000 magnetization 
 keeping initial charge density in first step


--------------------------------------------------------------------------------------------------------


 Maximum index for non-local projection operator         2273
 Maximum index for augmentation-charges         1497 (set IRDMAX)


--------------------------------------------------------------------------------------------------------


 First call to EWALD:  gamma=   0.059
 Maximum number of real-space cells 3x 3x 3
 Maximum number of reciprocal cells 3x 3x 3

 FEWALD executed in parallel
    FEWALD:  cpu time    0.0030: real time    0.0025


----------------------------------------- Iteration    1(   1)  ---------------------------------------


    POTLOK:  cpu time   30.0664: real time   30.1350
    SETDIJ:  cpu time    0.0070: real time    0.0065
     EDDAV:  cpu time  139.5988: real time  139.9251
       DOS:  cpu time    0.0000: real time    0.0002
    --------------------------------------------
      LOOP:  cpu time  169.6772: real time  170.0728

 eigenvalue-minimisations  :   160
 total energy-change (2. order) : 0.1130432E+03  (-0.2145562E+03)
 number of electron      16.0000000 magnetization 
 augmentation part       16.0000000 magnetization 

 Free energy of the ion-electron system (eV)
  ---------------------------------------------------
  alpha Z        PSCENC =         0.04144063
  Ewald energy   TEWEN  =       702.79507387
  -Hartree energ DENC   =     -1117.12338535
  -exchange      EXHF   =         0.00000000
  -V(xc)+E(xc)   XCENC  =        51.41868491
  PAW double counting   =       428.37890668     -430.73533574
  entropy T*S    EENTRO =        -0.19389739
  eigenvalues    EBANDS =      -117.70361798
  atomic energy  EATOM  =       596.16534815
  Solvation  Ediel_sol  =         0.00000000
  ---------------------------------------------------
  free energy    TOTEN  =       113.04321778 eV

  energy without entropy =      113.23711517  energy(sigma->0) =      113.14016648


--------------------------------------------------------------------------------------------------------




----------------------------------------- Iteration    1(   2)  ---------------------------------------


     EDDAV:  cpu time  163.0282: real time  163.4086
       DOS:  cpu time    0.0000: real time    0.0002
    --------------------------------------------
      LOOP:  cpu time  163.0292: real time  163.4126

 eigenvalue-minimisations  :   192
 total energy-change (2. order) :-0.1149803E+03  (-0.1128020E+03)
 number of electron      16.0000000 magnetization 
 augmentation part       16.0000000 magnetization 

 Free energy of the ion-electron system (eV)
  ---------------------------------------------------
  alpha Z        PSCENC =         0.04144063
  Ewald energy   TEWEN  =       702.79507387
  -Hartree energ DENC   =     -1117.12338535
  -exchange      EXHF   =         0.00000000
  -V(xc)+E(xc)   XCENC  =        51.41868491
  PAW double counting   =       428.37890668     -430.73533574
  entropy T*S    EENTRO =         0.00000000
  eigenvalues    EBANDS =      -232.87786175
  atomic energy  EATOM  =       596.16534815
  Solvation  Ediel_sol  =         0.00000000
  ---------------------------------------------------
  free energy    TOTEN  =        -1.93712861 eV

  energy without entropy =       -1.93712861  energy(sigma->0) =       -1.93712861


--------------------------------------------------------------------------------------------------------




----------------------------------------- Iteration    1(   3)  ---------------------------------------


     EDDAV:  cpu time  133.2657: real time  133.5737
       DOS:  cpu time    0.0000: real time    0.0001
    --------------------------------------------
      LOOP:  cpu time  133.2667: real time  133.5780

 eigenvalue-minimisations  :   144
 total energy-change (2. order) :-0.3295647E+02  (-0.3287429E+02)
 number of electron      16.0000000 magnetization 
 augmentation part       16.0000000 magnetization 

 Free energy of the ion-electron system (eV)
  ---------------------------------------------------
  alpha Z        PSCENC =         0.04144063
  Ewald energy   TEWEN  =       702.79507387
  -Hartree energ DENC   =     -1117.12338535
  -exchange      EXHF   =         0.00000000
  -V(xc)+E(xc)   XCENC  =        51.41868491
  PAW double counting   =       428.37890668     -430.73533574
  entropy T*S    EENTRO =         0.00000000
  eigenvalues    EBANDS =      -265.83432803
  atomic energy  EATOM  =       596.16534815
  Solvation  Ediel_sol  =         0.00000000
  ---------------------------------------------------
  free energy    TOTEN  =       -34.89359489 eV

  energy without entropy =      -34.89359489  energy(sigma->0) =      -34.89359489


--------------------------------------------------------------------------------------------------------




----------------------------------------- Iteration    1(   4)  ---------------------------------------


     EDDAV:  cpu time  116.7902: real time  117.0628
       DOS:  cpu time    0.0000: real time    0.0001
    --------------------------------------------
      LOOP:  cpu time  116.7912: real time  117.0671

 eigenvalue-minimisations  :   128
 total energy-change (2. order) :-0.4070024E+01  (-0.4027659E+01)
 number of electron      16.0000000 magnetization 
 augmentation part       16.0000000 magnetization 

 Free energy of the ion-electron system (eV)
  ---------------------------------------------------
  alpha Z        PSCENC =         0.04144063
  Ewald energy   TEWEN  =       702.79507387
  -Hartree energ DENC   =     -1117.12338535
  -exchange      EXHF   =         0.00000000
  -V(xc)+E(xc)   XCENC  =        51.41868491
  PAW double counting   =       428.37890668     -430.73533574
  entropy T*S    EENTRO =         0.00000000
  eigenvalues    EBANDS =      -269.90435162
  atomic energy  EATOM  =       596.16534815
  Solvation  Ediel_sol  =         0.00000000
  ---------------------------------------------------
  free energy    TOTEN  =       -38.96361847 eV

  energy without entropy =      -38.96361847  energy(sigma->0) =      -38.96361847


--------------------------------------------------------------------------------------------------------




----------------------------------------- Iteration    1(   5)  ---------------------------------------


     EDDAV:  cpu time  109.7213: real time  110.0060
       DOS:  cpu time    0.0000: real time    0.0001
    CHARGE:  cpu time    9.1666: real time    9.1882
    MIXING:  cpu time    0.8389: real time    0.8405
    --------------------------------------------
      LOOP:  cpu time  119.7278: real time  120.0392

 eigenvalue-minimisations  :   120
 total energy-change (2. order) :-0.1327868E+00  (-0.1309221E+00)
 number of electron      16.0000004 magnetization 
 augmentation part        0.5197667 magnetization 

 Broyden mixing:
  rms(total) = 0.10375E+01    rms(broyden)= 0.10369E+01
  rms(prec ) = 0.10740E+01
  weight for this iteration     100.00

 Free energy of the ion-electron system (eV)
  ---------------------------------------------------
  alpha Z        PSCENC =         0.04144063
  Ewald energy   TEWEN  =       702.79507387
  -Hartree energ DENC   =     -1117.12338535
  -exchange      EXHF   =         0.00000000
  -V(xc)+E(xc)   XCENC  =        51.41868491
  PAW double counting   =       428.37890668     -430.73533574
  entropy T*S    EENTRO =         0.00000000
  eigenvalues    EBANDS =      -270.03713842
  atomic energy  EATOM  =       596.16534815
  Solvation  Ediel_sol  =         0.00000000
  ---------------------------------------------------
  free energy    TOTEN  =       -39.09640527 eV

  energy without entropy =      -39.09640527  energy(sigma->0) =      -39.09640527


--------------------------------------------------------------------------------------------------------




----------------------------------------- Iteration    1(   6)  ---------------------------------------


    POTLOK:  cpu time   28.9116: real time   28.9784
    SETDIJ:  cpu time    0.0070: real time    0.0064
     EDDAV:  cpu time  109.3264: real time  109.5757
       DOS:  cpu time    0.0000: real time    0.0002
    CHARGE:  cpu time    9.3426: real time    9.3646
    MIXING:  cpu time    0.9179: real time    0.9199
    --------------------------------------------
      LOOP:  cpu time  148.5064: real time  148.8501

 eigenvalue-minimisations  :   124
 total energy-change (2. order) : 0.2687116E+01  (-0.4473852E+00)
 number of electron      16.0000006 magnetization 
 augmentation part        0.4737686 magnetization 

 Broyden mixing:
  rms(total) = 0.56248E+00    rms(broyden)= 0.56239E+00
  rms(prec ) = 0.57796E+00
  weight for this iteration     100.00

 eigenvalues of (default mixing * dielectric matrix)
  average eigenvalue GAMMA=   1.6110
  1.6110

 Free energy of the ion-electron system (eV)
  ---------------------------------------------------
  alpha Z        PSCENC =         0.04144063
  Ewald energy   TEWEN  =       702.79507387
  -Hartree energ DENC   =     -1146.25888819
  -exchange      EXHF   =         0.00000000
  -V(xc)+E(xc)   XCENC  =        53.01873530
  PAW double counting   =       719.82428761     -722.51632551
  entropy T*S    EENTRO =         0.00000000
  eigenvalues    EBANDS =      -239.47896113
  atomic energy  EATOM  =       596.16534815
  Solvation  Ediel_sol  =         0.00000000
  ---------------------------------------------------
  free energy    TOTEN  =       -36.40928927 eV

  energy without entropy =      -36.40928927  energy(sigma->0) =      -36.40928927


--------------------------------------------------------------------------------------------------------




----------------------------------------- Iteration    1(   7)  ---------------------------------------


    POTLOK:  cpu time   30.4384: real time   30.5107
    SETDIJ:  cpu time    0.0070: real time    0.0063
     EDDAV:  cpu time  122.4594: real time  122.7439
       DOS:  cpu time    0.0000: real time    0.0002
    CHARGE:  cpu time    8.8767: real time    8.8974
    MIXING:  cpu time    0.9908: real time    0.9932
    --------------------------------------------
      LOOP:  cpu time  162.7733: real time  163.1555

 eigenvalue-minimisations  :   128
 total energy-change (2. order) : 0.7007636E+00  (-0.1827743E+00)
 number of electron      16.0000006 magnetization 
 augmentation part        0.4578396 magnetization 

 Broyden mixing:
  rms(total) = 0.22362E+00    rms(broyden)= 0.22355E+00
  rms(prec ) = 0.22872E+00
  weight for this iteration     100.00

 eigenvalues of (default mixing * dielectric matrix)
  average eigenvalue GAMMA=   1.5752
  1.0910  2.0594

 Free energy of the ion-electron system (eV)
  ---------------------------------------------------
  alpha Z        PSCENC =         0.04144063
  Ewald energy   TEWEN  =       702.79507387
  -Hartree energ DENC   =     -1166.16568262
  -exchange      EXHF   =         0.00000000
  -V(xc)+E(xc)   XCENC  =        54.28970531
  PAW double counting   =      1098.22316947    -1101.10590824
  entropy T*S    EENTRO =         0.00000000
  eigenvalues    EBANDS =      -219.95167224
  atomic energy  EATOM  =       596.16534815
  Solvation  Ediel_sol  =         0.00000000
  ---------------------------------------------------
  free energy    TOTEN  =       -35.70852567 eV

  energy without entropy =      -35.70852567  energy(sigma->0) =      -35.70852567


--------------------------------------------------------------------------------------------------------




----------------------------------------- Iteration    1(   8)  ---------------------------------------


    POTLOK:  cpu time   30.3714: real time   30.4411
    SETDIJ:  cpu time    0.0060: real time    0.0065
     EDDAV:  cpu time  122.6883: real time  122.9733
       DOS:  cpu time    0.0010: real time    0.0002
    CHARGE:  cpu time    8.9416: real time    8.9628
    MIXING:  cpu time    1.1408: real time    1.1421
    --------------------------------------------
      LOOP:  cpu time  163.1512: real time  163.5302

 eigenvalue-minimisations  :   128
 total energy-change (2. order) : 0.6997044E-01  (-0.1389947E-01)
 number of electron      16.0000006 magnetization 
 augmentation part        0.4492861 magnetization 

 Broyden mixing:
  rms(total) = 0.87829E-01    rms(broyden)= 0.87807E-01
  rms(prec ) = 0.92102E-01
  weight for this iteration     100.00

 eigenvalues of (default mixing * dielectric matrix)
  average eigenvalue GAMMA=   1.5921
  2.3168  0.8264  1.6331

 Free energy of the ion-electron system (eV)
  ---------------------------------------------------
  alpha Z        PSCENC =         0.04144063
  Ewald energy   TEWEN  =       702.79507387
  -Hartree energ DENC   =     -1172.46934959
  -exchange      EXHF   =         0.00000000
  -V(xc)+E(xc)   XCENC  =        54.70030016
  PAW double counting   =      1273.66134953    -1276.56411002
  entropy T*S    EENTRO =         0.00000000
  eigenvalues    EBANDS =      -213.96860797
  atomic energy  EATOM  =       596.16534815
  Solvation  Ediel_sol  =         0.00000000
  ---------------------------------------------------
  free energy    TOTEN  =       -35.63855523 eV

  energy without entropy =      -35.63855523  energy(sigma->0) =      -35.63855523


--------------------------------------------------------------------------------------------------------




----------------------------------------- Iteration    1(   9)  ---------------------------------------


    POTLOK:  cpu time   27.7438: real time   27.8070
    SETDIJ:  cpu time    0.0070: real time    0.0066
     EDDAV:  cpu time  120.4847: real time  120.7666
       DOS:  cpu time    0.0000: real time    0.0002
    CHARGE:  cpu time    8.7907: real time    8.8105
    MIXING:  cpu time    1.1978: real time    1.2014
    --------------------------------------------
      LOOP:  cpu time  158.2249: real time  158.5968

 eigenvalue-minimisations  :   128
 total energy-change (2. order) : 0.1846807E-01  (-0.2126727E-02)
 number of electron      16.0000006 magnetization 
 augmentation part        0.4498984 magnetization 

 Broyden mixing:
  rms(total) = 0.21532E-01    rms(broyden)= 0.21521E-01
  rms(prec ) = 0.27783E-01
  weight for this iteration     100.00

 eigenvalues of (default mixing * dielectric matrix)
  average eigenvalue GAMMA=   1.5457
  2.0112  2.0112  0.8478  1.3127

 Free energy of the ion-electron system (eV)
  ---------------------------------------------------
  alpha Z        PSCENC =         0.04144063
  Ewald energy   TEWEN  =       702.79507387
  -Hartree energ DENC   =     -1173.70568907
  -exchange      EXHF   =         0.00000000
  -V(xc)+E(xc)   XCENC  =        54.78525606
  PAW double counting   =      1339.38296215    -1342.25842971
  entropy T*S    EENTRO =         0.00000000
  eigenvalues    EBANDS =      -212.82604924
  atomic energy  EATOM  =       596.16534815
  Solvation  Ediel_sol  =         0.00000000
  ---------------------------------------------------
  free energy    TOTEN  =       -35.62008716 eV

  energy without entropy =      -35.62008716  energy(sigma->0) =      -35.62008716


--------------------------------------------------------------------------------------------------------




----------------------------------------- Iteration    1(  10)  ---------------------------------------


    POTLOK:  cpu time   29.8915: real time   29.9599
    SETDIJ:  cpu time    0.0060: real time    0.0065
     EDDAV:  cpu time  122.2764: real time  122.5641
       DOS:  cpu time    0.0000: real time    0.0002
    CHARGE:  cpu time    8.6657: real time    8.6861
    MIXING:  cpu time    1.1638: real time    1.1663
    --------------------------------------------
      LOOP:  cpu time  162.0054: real time  162.3880

 eigenvalue-minimisations  :   128
 total energy-change (2. order) : 0.2059849E-03  (-0.4237489E-03)
 number of electron      16.0000006 magnetization 
 augmentation part        0.4507114 magnetization 

 Broyden mixing:
  rms(total) = 0.13044E-01    rms(broyden)= 0.13037E-01
  rms(prec ) = 0.18732E-01
  weight for this iteration     100.00

 eigenvalues of (default mixing * dielectric matrix)
  average eigenvalue GAMMA=   1.5116
  2.1869  2.1869  0.8902  0.8902  1.4039

 Free energy of the ion-electron system (eV)
  ---------------------------------------------------
  alpha Z        PSCENC =         0.04144063
  Ewald energy   TEWEN  =       702.79507387
  -Hartree energ DENC   =     -1174.70498373
  -exchange      EXHF   =         0.00000000
  -V(xc)+E(xc)   XCENC  =        54.80901412
  PAW double counting   =      1334.17609417    -1337.04704884
  entropy T*S    EENTRO =         0.00000000
  eigenvalues    EBANDS =      -211.85481954
  atomic energy  EATOM  =       596.16534815
  Solvation  Ediel_sol  =         0.00000000
  ---------------------------------------------------
  free energy    TOTEN  =       -35.61988117 eV

  energy without entropy =      -35.61988117  energy(sigma->0) =      -35.61988117


--------------------------------------------------------------------------------------------------------




----------------------------------------- Iteration    1(  11)  ---------------------------------------


    POTLOK:  cpu time   28.4797: real time   28.5493
    SETDIJ:  cpu time    0.0060: real time    0.0064
     EDDAV:  cpu time  118.0371: real time  118.3115
       DOS:  cpu time    0.0000: real time    0.0002
    CHARGE:  cpu time    9.0956: real time    9.1170
    MIXING:  cpu time    1.3608: real time    1.3640
    --------------------------------------------
      LOOP:  cpu time  156.9821: real time  157.3530

 eigenvalue-minimisations  :   124
 total energy-change (2. order) :-0.1685078E-02  (-0.1706946E-03)
 number of electron      16.0000006 magnetization 
 augmentation part        0.4502036 magnetization 

 Broyden mixing:
  rms(total) = 0.80720E-02    rms(broyden)= 0.80708E-02
  rms(prec ) = 0.12983E-01
  weight for this iteration     100.00

 eigenvalues of (default mixing * dielectric matrix)
  average eigenvalue GAMMA=   1.6595
  2.6427  2.6427  1.4502  1.4502  0.8856  0.8856

 Free energy of the ion-electron system (eV)
  ---------------------------------------------------
  alpha Z        PSCENC =         0.04144063
  Ewald energy   TEWEN  =       702.79507387
  -Hartree energ DENC   =     -1175.73415639
  -exchange      EXHF   =         0.00000000
  -V(xc)+E(xc)   XCENC  =        54.84063623
  PAW double counting   =      1333.61928504    -1336.48877352
  entropy T*S    EENTRO =         0.00000000
  eigenvalues    EBANDS =      -210.86042026
  atomic energy  EATOM  =       596.16534815
  Solvation  Ediel_sol  =         0.00000000
  ---------------------------------------------------
  free energy    TOTEN  =       -35.62156625 eV

  energy without entropy =      -35.62156625  energy(sigma->0) =      -35.62156625


--------------------------------------------------------------------------------------------------------




----------------------------------------- Iteration    1(  12)  ---------------------------------------


    POTLOK:  cpu time   27.8308: real time   27.8939
    SETDIJ:  cpu time    0.0060: real time    0.0065
     EDDAV:  cpu time  109.7903: real time  110.0459
       DOS:  cpu time    0.0000: real time    0.0002
    CHARGE:  cpu time    9.3746: real time    9.3971
    MIXING:  cpu time    1.4958: real time    1.4988
    --------------------------------------------
      LOOP:  cpu time  148.4984: real time  148.8467

 eigenvalue-minimisations  :   116
 total energy-change (2. order) :-0.5714636E-02  (-0.3054244E-03)
 number of electron      16.0000006 magnetization 
 augmentation part        0.4499159 magnetization 

 Broyden mixing:
  rms(total) = 0.45695E-02    rms(broyden)= 0.45647E-02
  rms(prec ) = 0.73660E-02
  weight for this iteration     100.00

 eigenvalues of (default mixing * dielectric matrix)
  average eigenvalue GAMMA=   1.7895
  3.8528  2.2294  1.9177  1.5818  0.9091  1.0180  1.0180

 Free energy of the ion-electron system (eV)
  ---------------------------------------------------
  alpha Z        PSCENC =         0.04144063
  Ewald energy   TEWEN  =       702.79507387
  -Hartree energ DENC   =     -1176.96563063
  -exchange      EXHF   =         0.00000000
  -V(xc)+E(xc)   XCENC  =        54.86979400
  PAW double counting   =      1330.05651167    -1332.92364630
  entropy T*S    EENTRO =         0.00000000
  eigenvalues    EBANDS =      -209.66617229
  atomic energy  EATOM  =       596.16534815
  Solvation  Ediel_sol  =         0.00000000
  ---------------------------------------------------
  free energy    TOTEN  =       -35.62728089 eV

  energy without entropy =      -35.62728089  energy(sigma->0) =      -35.62728089


--------------------------------------------------------------------------------------------------------




----------------------------------------- Iteration    1(  13)  ---------------------------------------


    POTLOK:  cpu time   30.6133: real time   30.6832
    SETDIJ:  cpu time    0.0070: real time    0.0064
     EDDAV:  cpu time  116.8482: real time  117.1188
       DOS:  cpu time    0.0000: real time    0.0002
    CHARGE:  cpu time    9.2996: real time    9.3218
    MIXING:  cpu time    1.7667: real time    1.7707
    --------------------------------------------
      LOOP:  cpu time  158.5369: real time  158.9059

 eigenvalue-minimisations  :   128
 total energy-change (2. order) :-0.6030653E-02  (-0.1611809E-03)
 number of electron      16.0000006 magnetization 
 augmentation part        0.4497420 magnetization 

 Broyden mixing:
  rms(total) = 0.28539E-02    rms(broyden)= 0.28515E-02
  rms(prec ) = 0.43638E-02
  weight for this iteration     100.00

 eigenvalues of (default mixing * dielectric matrix)
  average eigenvalue GAMMA=   1.8859
  4.9023  2.3996  1.7479  1.7479  1.4657  0.9127  0.9127  0.9983

 Free energy of the ion-electron system (eV)
  ---------------------------------------------------
  alpha Z        PSCENC =         0.04144063
  Ewald energy   TEWEN  =       702.79507387
  -Hartree energ DENC   =     -1177.56763780
  -exchange      EXHF   =         0.00000000
  -V(xc)+E(xc)   XCENC  =        54.87697046
  PAW double counting   =      1329.41585419    -1332.28346019
  entropy T*S    EENTRO =         0.00000000
  eigenvalues    EBANDS =      -209.07690085
  atomic energy  EATOM  =       596.16534815
  Solvation  Ediel_sol  =         0.00000000
  ---------------------------------------------------
  free energy    TOTEN  =       -35.63331154 eV

  energy without entropy =      -35.63331154  energy(sigma->0) =      -35.63331154


--------------------------------------------------------------------------------------------------------




----------------------------------------- Iteration    1(  14)  ---------------------------------------


    POTLOK:  cpu time   31.2902: real time   31.3640
    SETDIJ:  cpu time    0.0050: real time    0.0064
     EDDAV:  cpu time  116.3633: real time  116.6317
       DOS:  cpu time    0.0000: real time    0.0002
    CHARGE:  cpu time    9.1356: real time    9.1588
    MIXING:  cpu time    1.7757: real time    1.7787
    --------------------------------------------
      LOOP:  cpu time  158.5729: real time  158.9443

 eigenvalue-minimisations  :   128
 total energy-change (2. order) :-0.3947771E-02  (-0.4851988E-04)
 number of electron      16.0000006 magnetization 
 augmentation part        0.4497678 magnetization 

 Broyden mixing:
  rms(total) = 0.18536E-02    rms(broyden)= 0.18530E-02
  rms(prec ) = 0.27088E-02
  weight for this iteration     100.00

 eigenvalues of (default mixing * dielectric matrix)
  average eigenvalue GAMMA=   1.9771
  5.1415  2.7511  2.4565  1.8905  1.5633  1.1103  1.1103  0.8849  0.8849

 Free energy of the ion-electron system (eV)
  ---------------------------------------------------
  alpha Z        PSCENC =         0.04144063
  Ewald energy   TEWEN  =       702.79507387
  -Hartree energ DENC   =     -1177.75137421
  -exchange      EXHF   =         0.00000000
  -V(xc)+E(xc)   XCENC  =        54.87099813
  PAW double counting   =      1327.76394030    -1330.63143072
  entropy T*S    EENTRO =         0.00000000
  eigenvalues    EBANDS =      -208.89125547
  atomic energy  EATOM  =       596.16534815
  Solvation  Ediel_sol  =         0.00000000
  ---------------------------------------------------
  free energy    TOTEN  =       -35.63725931 eV

  energy without entropy =      -35.63725931  energy(sigma->0) =      -35.63725931


--------------------------------------------------------------------------------------------------------




----------------------------------------- Iteration    1(  15)  ---------------------------------------


    POTLOK:  cpu time   30.5764: real time   30.6473
    SETDIJ:  cpu time    0.0070: real time    0.0065
     EDDAV:  cpu time  117.6581: real time  117.9320
       DOS:  cpu time    0.0000: real time    0.0002
    CHARGE:  cpu time    9.0346: real time    9.0563
    MIXING:  cpu time    2.0817: real time    2.0866
    --------------------------------------------
      LOOP:  cpu time  159.3598: real time  159.7334

 eigenvalue-minimisations  :   128
 total energy-change (2. order) :-0.3339450E-02  (-0.3617274E-04)
 number of electron      16.0000006 magnetization 
 augmentation part        0.4498118 magnetization 

 Broyden mixing:
  rms(total) = 0.11687E-02    rms(broyden)= 0.11686E-02
  rms(prec ) = 0.15869E-02
  weight for this iteration     100.00

 eigenvalues of (default mixing * dielectric matrix)
  average eigenvalue GAMMA=   2.0907
  6.5079  3.4863  2.3575  1.6396  1.6396  1.5295  1.0306  0.9198  0.9198  0.8770

 Free energy of the ion-electron system (eV)
  ---------------------------------------------------
  alpha Z        PSCENC =         0.04144063
  Ewald energy   TEWEN  =       702.79507387
  -Hartree energ DENC   =     -1177.77938660
  -exchange      EXHF   =         0.00000000
  -V(xc)+E(xc)   XCENC  =        54.86478484
  PAW double counting   =      1328.64692148    -1331.51463734
  entropy T*S    EENTRO =         0.00000000
  eigenvalues    EBANDS =      -208.86014379
  atomic energy  EATOM  =       596.16534815
  Solvation  Ediel_sol  =         0.00000000
  ---------------------------------------------------
  free energy    TOTEN  =       -35.64059876 eV

  energy without entropy =      -35.64059876  energy(sigma->0) =      -35.64059876


--------------------------------------------------------------------------------------------------------




----------------------------------------- Iteration    1(  16)  ---------------------------------------


    POTLOK:  cpu time   30.5074: real time   30.5773
    SETDIJ:  cpu time    0.0060: real time    0.0065
     EDDAV:  cpu time  115.0785: real time  115.3431
       DOS:  cpu time    0.0000: real time    0.0002
    CHARGE:  cpu time    8.9216: real time    8.9412
    MIXING:  cpu time    2.2637: real time    2.2696
    --------------------------------------------
      LOOP:  cpu time  156.7772: real time  157.1417

 eigenvalue-minimisations  :   128
 total energy-change (2. order) :-0.1223162E-02  (-0.1089532E-04)
 number of electron      16.0000006 magnetization 
 augmentation part        0.4497850 magnetization 

 Broyden mixing:
  rms(total) = 0.66048E-03    rms(broyden)= 0.66024E-03
  rms(prec ) = 0.90840E-03
  weight for this iteration     100.00

 eigenvalues of (default mixing * dielectric matrix)
  average eigenvalue GAMMA=   2.1389
  7.1832  3.4380  2.2516  2.2516  1.6461  1.6461  1.3411  0.9947  0.9947  0.8904
  0.8904

 Free energy of the ion-electron system (eV)
  ---------------------------------------------------
  alpha Z        PSCENC =         0.04144063
  Ewald energy   TEWEN  =       702.79507387
  -Hartree energ DENC   =     -1177.81130543
  -exchange      EXHF   =         0.00000000
  -V(xc)+E(xc)   XCENC  =        54.86274806
  PAW double counting   =      1328.53616417    -1331.40392396
  entropy T*S    EENTRO =         0.00000000
  eigenvalues    EBANDS =      -208.82736741
  atomic energy  EATOM  =       596.16534815
  Solvation  Ediel_sol  =         0.00000000
  ---------------------------------------------------
  free energy    TOTEN  =       -35.64182192 eV

  energy without entropy =      -35.64182192  energy(sigma->0) =      -35.64182192


--------------------------------------------------------------------------------------------------------




----------------------------------------- Iteration    1(  17)  ---------------------------------------


    POTLOK:  cpu time   26.6979: real time   26.7593
    SETDIJ:  cpu time    0.0070: real time    0.0068
     EDDAV:  cpu time   90.3223: real time   90.5329
       DOS:  cpu time    0.0000: real time    0.0002
    CHARGE:  cpu time    8.8227: real time    8.8432
    MIXING:  cpu time    2.3576: real time    2.3633
    --------------------------------------------
      LOOP:  cpu time  128.2085: real time  128.5101

 eigenvalue-minimisations  :    88
 total energy-change (2. order) :-0.8063036E-03  (-0.2573464E-05)
 number of electron      16.0000006 magnetization 
 augmentation part        0.4497567 magnetization 

 Broyden mixing:
  rms(total) = 0.40634E-03    rms(broyden)= 0.40619E-03
  rms(prec ) = 0.53925E-03
  weight for this iteration     100.00

 eigenvalues of (default mixing * dielectric matrix)
  average eigenvalue GAMMA=   2.2540
  8.0845  4.2549  2.7330  2.3525  1.6206  1.6206  1.5671  1.0780  0.9875  0.9875
  0.8807  0.8807

 Free energy of the ion-electron system (eV)
  ---------------------------------------------------
  alpha Z        PSCENC =         0.04144063
  Ewald energy   TEWEN  =       702.79507387
  -Hartree energ DENC   =     -1177.82097915
  -exchange      EXHF   =         0.00000000
  -V(xc)+E(xc)   XCENC  =        54.86171212
  PAW double counting   =      1328.38100293    -1331.24852979
  entropy T*S    EENTRO =         0.00000000
  eigenvalues    EBANDS =      -208.81769699
  atomic energy  EATOM  =       596.16534815
  Solvation  Ediel_sol  =         0.00000000
  ---------------------------------------------------
  free energy    TOTEN  =       -35.64262823 eV

  energy without entropy =      -35.64262823  energy(sigma->0) =      -35.64262823


--------------------------------------------------------------------------------------------------------




----------------------------------------- Iteration    1(  18)  ---------------------------------------


    POTLOK:  cpu time   24.6373: real time   24.6932
    SETDIJ:  cpu time    0.0070: real time    0.0066
     EDDAV:  cpu time   81.7626: real time   81.9499
       DOS:  cpu time    0.0000: real time    0.0002
    CHARGE:  cpu time    7.5199: real time    7.5385
    MIXING:  cpu time    1.8427: real time    1.8456
    --------------------------------------------
      LOOP:  cpu time  115.7714: real time  116.0387

 eigenvalue-minimisations  :    80
 total energy-change (2. order) :-0.3820464E-03  (-0.2684660E-05)
 number of electron      16.0000006 magnetization 
 augmentation part        0.4497592 magnetization 

 Broyden mixing:
  rms(total) = 0.27223E-03    rms(broyden)= 0.27218E-03
  rms(prec ) = 0.33538E-03
  weight for this iteration     100.00

 eigenvalues of (default mixing * dielectric matrix)
  average eigenvalue GAMMA=   2.3307
  8.3853  4.7102  2.6049  2.5130  2.5130  1.6644  1.6644  1.4508  1.0054  1.0054
  0.8909  0.8909  1.0007

 Free energy of the ion-electron system (eV)
  ---------------------------------------------------
  alpha Z        PSCENC =         0.04144063
  Ewald energy   TEWEN  =       702.79507387
  -Hartree energ DENC   =     -1177.81427516
  -exchange      EXHF   =         0.00000000
  -V(xc)+E(xc)   XCENC  =        54.86093597
  PAW double counting   =      1328.58920222    -1331.45673188
  entropy T*S    EENTRO =         0.00000000
  eigenvalues    EBANDS =      -208.82400406
  atomic energy  EATOM  =       596.16534815
  Solvation  Ediel_sol  =         0.00000000
  ---------------------------------------------------
  free energy    TOTEN  =       -35.64301027 eV

  energy without entropy =      -35.64301027  energy(sigma->0) =      -35.64301027


--------------------------------------------------------------------------------------------------------




----------------------------------------- Iteration    1(  19)  ---------------------------------------


    POTLOK:  cpu time   28.5847: real time   28.6504
    SETDIJ:  cpu time    0.0060: real time    0.0065
     EDDAV:  cpu time   76.9883: real time   77.1608
       DOS:  cpu time    0.0000: real time    0.0002
    CHARGE:  cpu time    7.7948: real time    7.8122
    MIXING:  cpu time    2.0827: real time    2.0864
    --------------------------------------------
      LOOP:  cpu time  115.4574: real time  115.7214

 eigenvalue-minimisations  :    80
 total energy-change (2. order) :-0.2204420E-03  (-0.9564099E-06)
 number of electron      16.0000006 magnetization 
 augmentation part        0.4497734 magnetization 

 Broyden mixing:
  rms(total) = 0.26083E-03    rms(broyden)= 0.26076E-03
  rms(prec ) = 0.28382E-03
  weight for this iteration     100.00

 eigenvalues of (default mixing * dielectric matrix)
  average eigenvalue GAMMA=   2.3242
  8.6430  5.2964  3.2258  2.5786  2.0314  1.8058  1.6079  1.6079  1.0270  1.0270
  1.0694  0.8772  0.8772  0.8634

 Free energy of the ion-electron system (eV)
  ---------------------------------------------------
  alpha Z        PSCENC =         0.04144063
  Ewald energy   TEWEN  =       702.79507387
  -Hartree energ DENC   =     -1177.80741985
  -exchange      EXHF   =         0.00000000
  -V(xc)+E(xc)   XCENC  =        54.86042846
  PAW double counting   =      1328.56462788    -1331.43226962
  entropy T*S    EENTRO =         0.00000000
  eigenvalues    EBANDS =      -208.83046025
  atomic energy  EATOM  =       596.16534815
  Solvation  Ediel_sol  =         0.00000000
  ---------------------------------------------------
  free energy    TOTEN  =       -35.64323072 eV

  energy without entropy =      -35.64323072  energy(sigma->0) =      -35.64323072


--------------------------------------------------------------------------------------------------------




----------------------------------------- Iteration    1(  20)  ---------------------------------------


    POTLOK:  cpu time   26.5510: real time   26.6081
    SETDIJ:  cpu time    0.0060: real time    0.0065
     EDDAV:  cpu time   96.1524: real time   96.3717
       DOS:  cpu time    0.0000: real time    0.0002
    --------------------------------------------
      LOOP:  cpu time  122.7103: real time  122.9911

 eigenvalue-minimisations  :    96
 total energy-change (2. order) :-0.4666935E-04  (-0.2701331E-06)
 number of electron      16.0000006 magnetization 
 augmentation part        0.4497734 magnetization 

 Free energy of the ion-electron system (eV)
  ---------------------------------------------------
  alpha Z        PSCENC =         0.04144063
  Ewald energy   TEWEN  =       702.79507387
  -Hartree energ DENC   =     -1177.80783025
  -exchange      EXHF   =         0.00000000
  -V(xc)+E(xc)   XCENC  =        54.86031398
  PAW double counting   =      1328.47087008    -1331.33846388
  entropy T*S    EENTRO =         0.00000000
  eigenvalues    EBANDS =      -208.83002997
  atomic energy  EATOM  =       596.16534815
  Solvation  Ediel_sol  =         0.00000000
  ---------------------------------------------------
  free energy    TOTEN  =       -35.64327739 eV

  energy without entropy =      -35.64327739  energy(sigma->0) =      -35.64327739


--------------------------------------------------------------------------------------------------------




 average (electrostatic) potential at core
  the test charge radii are     0.5201  0.6991  0.7089
  (the norm of the test charge is              1.0000)
       1 -43.0790       2 -43.0803       3 -43.0801       4 -60.5343       5 -59.3476
       6 -74.8320
 
 
 
 E-fermi :  -6.1897     XC(G=0):  -0.0952     alpha+bet : -0.0137


 k-point     1 :       0.2500    0.2500    0.2500
  band No.  band energies     occupation 
      1     -23.8893      2.00000
      2     -19.2987      2.00000
      3     -13.8823      2.00000
      4     -11.7985      2.00000
      5     -11.7976      2.00000
      6      -8.3025      2.00000
      7      -8.3020      2.00000
      8      -7.1442      2.00000
      9      -0.7617      0.00000
     10      -0.6640      0.00000
     11      -0.6637      0.00000
     12      -0.0134      0.00000

 k-point     2 :      -0.2500    0.2500    0.2500
  band No.  band energies     occupation 
      1     -23.8893      2.00000
      2     -19.2987      2.00000
      3     -13.8823      2.00000
      4     -11.7985      2.00000
      5     -11.7976      2.00000
      6      -8.3024      2.00000
      7      -8.3020      2.00000
      8      -7.1442      2.00000
      9      -0.7617      0.00000
     10      -0.6640      0.00000
     11      -0.6637      0.00000
     12      -0.0131      0.00000

 k-point     3 :       0.2500   -0.2500    0.2500
  band No.  band energies     occupation 
      1     -23.8893      2.00000
      2     -19.2987      2.00000
      3     -13.8823      2.00000
      4     -11.7985      2.00000
      5     -11.7976      2.00000
      6      -8.3024      2.00000
      7      -8.3020      2.00000
      8      -7.1442      2.00000
      9      -0.7617      0.00000
     10      -0.6640      0.00000
     11      -0.6637      0.00000
     12      -0.0134      0.00000

 k-point     4 :      -0.2500   -0.2500    0.2500
  band No.  band energies     occupation 
      1     -23.8893      2.00000
      2     -19.2987      2.00000
      3     -13.8823      2.00000
      4     -11.7985      2.00000
      5     -11.7976      2.00000
      6      -8.3024      2.00000
      7      -8.3020      2.00000
      8      -7.1442      2.00000
      9      -0.7617      0.00000
     10      -0.6640      0.00000
     11      -0.6637      0.00000
     12      -0.0136      0.00000


--------------------------------------------------------------------------------------------------------


 soft charge-density along one line, spin component           1
         0         1         2         3         4         5         6         7         8         9
 total charge-density along one line
 
 pseudopotential strength for first ion, spin component:           1
 -2.363  -4.075  -0.002   0.001   0.000
 -4.075  -6.942  -0.005   0.002  -0.001
 -0.002  -0.005  -0.330  -0.002   0.001
  0.001   0.002  -0.002  -0.333   0.000
  0.000  -0.001   0.001   0.000  -0.334
 total augmentation occupancy for first ion, spin component:           1
  3.521  -0.634   0.414  -0.147   0.070
 -0.634   0.131  -0.076   0.027  -0.012
  0.414  -0.076   0.050  -0.015   0.007
 -0.147   0.027  -0.015   0.014  -0.002
  0.070  -0.012   0.007  -0.002   0.007


------------------------ aborting loop because EDIFF is reached ----------------------------------------


    CHARGE:  cpu time    8.5687: real time    8.5882
    FORLOC:  cpu time    2.7806: real time    2.7872
    FORNL :  cpu time   24.1573: real time   24.2116
    STRESS:  cpu time   73.3269: real time   73.4935
    FORCOR:  cpu time   28.6057: real time   28.6687
    FORHAR:  cpu time    9.9025: real time    9.9232
    MIXING:  cpu time    2.4256: real time    2.4318
    OFIELD:  cpu time    0.0000: real time    0.0000

  FORCE on cell =-STRESS in cart. coord.  units (eV):
  Direction    XX          YY          ZZ          XY          YZ          ZX
  --------------------------------------------------------------------------------------
  Alpha Z     0.04144     0.04144     0.04144
  Ewald     559.36830    45.03778    98.38868    54.55851   -18.39377  -174.81781
  Hartree   563.13402   293.34005   321.33837    28.53214    -9.62232   -91.42045
  E(xc)     -58.91982   -60.18284   -60.05198     0.13437    -0.04527    -0.43064
  Local   -1264.91368  -512.99595  -591.00889   -79.66433    26.86238   255.25867
  n-local   -26.44414   -24.39649   -24.61134    -0.21327     0.07249     0.69430
  augment     0.51724     0.99252     0.94391    -0.05003     0.01694     0.16182
  Kinetic   226.37152   257.17003   253.98034    -3.27493     1.10276    10.49867
  Fock        0.00000     0.00000     0.00000     0.00000     0.00000     0.00000
  -------------------------------------------------------------------------------------
  Total      -0.84513    -0.99346    -0.97946     0.02246    -0.00679    -0.05544
  in kB      -0.05015    -0.05895    -0.05812     0.00133    -0.00040    -0.00329
  external pressure =       -0.06 kB  Pullay stress =        0.00 kB


 VOLUME and BASIS-vectors are now :
 -----------------------------------------------------------------------------
  energy-cutoff  :      400.00
  volume of cell :    27000.00
      direct lattice vectors                 reciprocal lattice vectors
    30.000000000  0.000000000  0.000000000     0.033333333  0.000000000  0.000000000
     0.000000000 30.000000000  0.000000000     0.000000000  0.033333333  0.000000000
     0.000000000  0.000000000 30.000000000     0.000000000  0.000000000  0.033333333

  length of vectors
    30.000000000 30.000000000 30.000000000     0.033333333  0.033333333  0.033333333


 FORCES acting on ions
    electron-ion (+dipol)            ewald-force                    non-local-force                 convergence-correction
 -----------------------------------------------------------------------------------------------
   0.220E+02 0.584E+02 -.245E+02   -.229E+02 -.637E+02 0.264E+02   0.903E+00 0.528E+01 -.188E+01   -.822E-04 0.280E-03 -.553E-04
   0.515E+02 -.102E+02 0.416E+02   -.552E+02 0.112E+02 -.459E+02   0.364E+01 -.106E+01 0.423E+01   0.588E-04 -.705E-04 0.277E-03
   0.236E+02 -.380E+02 -.499E+02   -.246E+02 0.416E+02 0.542E+02   0.105E+01 -.363E+01 -.424E+01   -.750E-04 -.217E-03 -.186E-03
   0.114E+03 0.120E+02 -.386E+02   -.121E+03 -.128E+02 0.410E+02   0.715E+01 0.755E+00 -.241E+01   -.150E-02 -.159E-03 0.549E-03
   -.217E+03 -.229E+02 0.732E+02   0.242E+03 0.255E+02 -.817E+02   -.251E+02 -.264E+01 0.845E+01   0.176E-02 0.173E-03 -.574E-03
   0.154E+02 0.161E+01 -.511E+01   -.183E+02 -.191E+01 0.609E+01   0.292E+01 0.305E+00 -.971E+00   -.181E-02 -.195E-03 0.638E-03
 -----------------------------------------------------------------------------------------------
   0.942E+01 0.989E+00 -.318E+01   0.000E+00 0.355E-14 0.711E-14   -.942E+01 -.992E+00 0.318E+01   -.165E-02 -.189E-03 0.650E-03
 
 
 POSITION                                       TOTAL-FORCE (eV/Angst)
 -----------------------------------------------------------------------------------
     14.41531     13.85176     15.56934        -0.002789      0.000558      0.000580
     13.88511     15.08186     14.38299        -0.001042      0.001014     -0.002024
     14.38696     15.58181     16.02604        -0.000847      0.001474      0.000471
     14.58280     14.87576     15.20681        -0.000893      0.001068     -0.000283
     17.03156     15.13352     14.38096        -0.001573     -0.003874      0.002877
     15.91829     15.01638     14.75610         0.007144     -0.000239     -0.001622
 -----------------------------------------------------------------------------------
    total drift:                               -0.006871     -0.003046      0.008305


--------------------------------------------------------------------------------------------------------



  FREE ENERGIE OF THE ION-ELECTRON SYSTEM (eV)
  ---------------------------------------------------
  free  energy   TOTEN  =       -35.64327739 eV

  energy  without entropy=      -35.64327739  energy(sigma->0) =      -35.64327739
 


--------------------------------------------------------------------------------------------------------


    POTLOK:  cpu time   20.3939: real time   20.4367


--------------------------------------------------------------------------------------------------------


 NEB: the previous image is higher in energy: F
 NEB: the next image is higher in energy    : T
 NEB: only next energy greater

 NEB: Tangent
 ----------------------------------------------
      0.15703      0.02979      0.22499
     -0.12652      0.03554      0.40924
      0.38984      0.03623      0.14111
      0.08446      0.01006      0.15206
     -0.29938     -0.16264     -0.57924
     -0.12562     -0.08076     -0.24826

 NEB: forces: par spring, perp REAL, dneb     0.013630    0.009691    0.000000
 NEB: distance to prev, next image, angle between     1.067529    1.070255  145.287627
 NEB: projections on to tangent (spring, REAL)     0.013630   -0.002310

 stress matrix after NEB project (eV)
     -0.84513      0.02246     -0.05544
      0.02246     -0.99346     -0.00679
     -0.05544     -0.00679     -0.97946
  FORCES: max atom, RMS     0.011067    0.006828
  FORCE total and by dimension    0.016724    0.006467
  Stress total and by dimension    1.633338    0.993460
 
 OPT: Flag T
 OPT: FIRE Step
 OPT: FIRE, TIMESTEP      0.10000
 OPT: FIRE, alpha         0.10000


--------------------------------------------------------------------------------------------------------


    WAVPRE:  cpu time    7.9908: real time    9.1094
 FEWALD executed in parallel
    FEWALD:  cpu time    0.0010: real time    0.0003
    ORTHCH:  cpu time    6.2021: real time    6.4604
     LOOP+:  cpu time 3186.9215: real time 3195.6989


----------------------------------------- Iteration    2(   1)  ---------------------------------------


    POTLOK:  cpu time   35.2936: real time   40.0043
    SETDIJ:  cpu time    0.0070: real time    0.0176
     EDDAV:  cpu time   56.9083: real time   63.3311
       DOS:  cpu time    0.0000: real time    0.0002
    CHARGE:  cpu time    5.3442: real time    5.6948
    MIXING:  cpu time    0.6929: real time    0.8946
    --------------------------------------------
      LOOP:  cpu time   98.2481: real time  109.9475

 eigenvalue-minimisations  :    68
 total energy-change (2. order) :-0.9403889E-04  (-0.5940340E-05)
 number of electron      16.0000006 magnetization 
 augmentation part        0.4497747 magnetization 

 Broyden mixing:
  rms(total) = 0.29824E-03    rms(broyden)= 0.29762E-03
  rms(prec ) = 0.30865E-03
  weight for this iteration     100.00

 Free energy of the ion-electron system (eV)
  ---------------------------------------------------
  alpha Z        PSCENC =         0.04144063
  Ewald energy   TEWEN  =       702.80668097
  -Hartree energ DENC   =     -1177.81571831
  -exchange      EXHF   =         0.00000000
  -V(xc)+E(xc)   XCENC  =        54.86060299
  PAW double counting   =      1328.50624995    -1331.37384409
  entropy T*S    EENTRO =         0.00000000
  eigenvalues    EBANDS =      -208.83408504
  atomic energy  EATOM  =       596.16534815
  Solvation  Ediel_sol  =         0.00000000
  ---------------------------------------------------
  free energy    TOTEN  =       -35.64332476 eV

  energy without entropy =      -35.64332476  energy(sigma->0) =      -35.64332476


--------------------------------------------------------------------------------------------------------




----------------------------------------- Iteration    2(   2)  ---------------------------------------


    POTLOK:  cpu time   32.6690: real time   34.3620
    SETDIJ:  cpu time    0.0070: real time    0.0070
     EDDAV:  cpu time   78.1821: real time   78.3597
       DOS:  cpu time    0.0000: real time    0.0002
    CHARGE:  cpu time    5.9451: real time    5.9589
    MIXING:  cpu time    0.8469: real time    0.8492
    --------------------------------------------
      LOOP:  cpu time  117.6531: real time  119.5410

 eigenvalue-minimisations  :    96
 total energy-change (2. order) :-0.8672470E-05  (-0.3408738E-06)
 number of electron      16.0000006 magnetization 
 augmentation part        0.4497925 magnetization 

 Broyden mixing:
  rms(total) = 0.15248E-03    rms(broyden)= 0.15235E-03
  rms(prec ) = 0.15765E-03
  weight for this iteration     100.00

 eigenvalues of (default mixing * dielectric matrix)
  average eigenvalue GAMMA=   1.1846
  1.1846

 Free energy of the ion-electron system (eV)
  ---------------------------------------------------
  alpha Z        PSCENC =         0.04144063
  Ewald energy   TEWEN  =       702.80668097
  -Hartree energ DENC   =     -1177.81510407
  -exchange      EXHF   =         0.00000000
  -V(xc)+E(xc)   XCENC  =        54.86058541
  PAW double counting   =      1328.53266793    -1331.40028974
  entropy T*S    EENTRO =         0.00000000
  eigenvalues    EBANDS =      -208.83466270
  atomic energy  EATOM  =       596.16534815
  Solvation  Ediel_sol  =         0.00000000
  ---------------------------------------------------
  free energy    TOTEN  =       -35.64333343 eV

  energy without entropy =      -35.64333343  energy(sigma->0) =      -35.64333343


--------------------------------------------------------------------------------------------------------




----------------------------------------- Iteration    2(   3)  ---------------------------------------


    POTLOK:  cpu time   35.1257: real time   35.2012
    SETDIJ:  cpu time    0.0060: real time    0.0071
     EDDAV:  cpu time   57.1923: real time   57.3179
       DOS:  cpu time    0.0000: real time    0.0002
    CHARGE:  cpu time    5.6681: real time    5.6812
    MIXING:  cpu time    1.0358: real time    1.0377
    --------------------------------------------
      LOOP:  cpu time   99.0309: real time   99.2504

 eigenvalue-minimisations  :    64
 total energy-change (2. order) :-0.7919097E-05  (-0.5056119E-07)
 number of electron      16.0000006 magnetization 
 augmentation part        0.4497963 magnetization 

 Broyden mixing:
  rms(total) = 0.94285E-04    rms(broyden)= 0.94249E-04
  rms(prec ) = 0.99146E-04
  weight for this iteration     100.00

 eigenvalues of (default mixing * dielectric matrix)
  average eigenvalue GAMMA=   1.5355
  1.2464  1.8245

 Free energy of the ion-electron system (eV)
  ---------------------------------------------------
  alpha Z        PSCENC =         0.04144063
  Ewald energy   TEWEN  =       702.80668097
  -Hartree energ DENC   =     -1177.81684867
  -exchange      EXHF   =         0.00000000
  -V(xc)+E(xc)   XCENC  =        54.86065108
  PAW double counting   =      1328.56263766    -1331.43029920
  entropy T*S    EENTRO =         0.00000000
  eigenvalues    EBANDS =      -208.83295196
  atomic energy  EATOM  =       596.16534815
  Solvation  Ediel_sol  =         0.00000000
  ---------------------------------------------------
  free energy    TOTEN  =       -35.64334135 eV

  energy without entropy =      -35.64334135  energy(sigma->0) =      -35.64334135


--------------------------------------------------------------------------------------------------------




----------------------------------------- Iteration    2(   4)  ---------------------------------------


    POTLOK:  cpu time   33.4569: real time   33.5315
    SETDIJ:  cpu time    0.0070: real time    0.0068
     EDDAV:  cpu time   54.6667: real time   54.7864
[...]
  Solvation  Ediel_sol  =         0.00000000
  ---------------------------------------------------
  free energy    TOTEN  =       -35.64338286 eV

  energy without entropy =      -35.64338286  energy(sigma->0) =      -35.64338286


--------------------------------------------------------------------------------------------------------




----------------------------------------- Iteration   74(   2)  ---------------------------------------


    POTLOK:  cpu time   23.0645: real time   23.1093
    SETDIJ:  cpu time    0.0060: real time    0.0064
     EDDAV:  cpu time   41.0898: real time   41.1685
       DOS:  cpu time    0.0000: real time    0.0002
    CHARGE:  cpu time    4.7833: real time    4.7929
    MIXING:  cpu time    0.6199: real time    0.6202
    --------------------------------------------
      LOOP:  cpu time   69.5634: real time   69.7004

 eigenvalue-minimisations  :    60
 total energy-change (2. order) :-0.1501328E-06  (-0.7537852E-06)
 number of electron      16.0000011 magnetization 
 augmentation part        0.4498398 magnetization 

 Broyden mixing:
  rms(total) = 0.35985E-03    rms(broyden)= 0.35954E-03
  rms(prec ) = 0.36692E-03
  weight for this iteration     100.00

 eigenvalues of (default mixing * dielectric matrix)
  average eigenvalue GAMMA=   1.7632
  1.7632

 Free energy of the ion-electron system (eV)
  ---------------------------------------------------
  alpha Z        PSCENC =         0.04144063
  Ewald energy   TEWEN  =       702.86096265
  -Hartree energ DENC   =     -1177.86627881
  -exchange      EXHF   =         0.00000000
  -V(xc)+E(xc)   XCENC  =        54.86178110
  PAW double counting   =      1328.74699351    -1331.61477704
  entropy T*S    EENTRO =         0.00000000
  eigenvalues    EBANDS =      -208.83885321
  atomic energy  EATOM  =       596.16534815
  Solvation  Ediel_sol  =         0.00000000
  ---------------------------------------------------
  free energy    TOTEN  =       -35.64338301 eV

  energy without entropy =      -35.64338301  energy(sigma->0) =      -35.64338301


--------------------------------------------------------------------------------------------------------




----------------------------------------- Iteration   74(   3)  ---------------------------------------


    POTLOK:  cpu time   20.9118: real time   20.9511
    SETDIJ:  cpu time    0.0060: real time    0.0064
     EDDAV:  cpu time   35.3766: real time   35.4454
       DOS:  cpu time    0.0000: real time    0.0002
    CHARGE:  cpu time    4.8923: real time    4.9016
    MIXING:  cpu time    0.7249: real time    0.7261
    --------------------------------------------
      LOOP:  cpu time   61.9126: real time   62.0351

 eigenvalue-minimisations  :    48
 total energy-change (2. order) :-0.1110060E-06  (-0.1197378E-06)
 number of electron      16.0000011 magnetization 
 augmentation part        0.4498374 magnetization 

 Broyden mixing:
  rms(total) = 0.94231E-04    rms(broyden)= 0.94105E-04
  rms(prec ) = 0.95530E-04
  weight for this iteration     100.00

 eigenvalues of (default mixing * dielectric matrix)
  average eigenvalue GAMMA=   1.5954
  1.0721  2.1187

 Free energy of the ion-electron system (eV)
  ---------------------------------------------------
  alpha Z        PSCENC =         0.04144063
  Ewald energy   TEWEN  =       702.86096265
  -Hartree energ DENC   =     -1177.86804923
  -exchange      EXHF   =         0.00000000
  -V(xc)+E(xc)   XCENC  =        54.86187097
  PAW double counting   =      1328.77688860    -1331.64469609
  entropy T*S    EENTRO =         0.00000000
  eigenvalues    EBANDS =      -208.83714880
  atomic energy  EATOM  =       596.16534815
  Solvation  Ediel_sol  =         0.00000000
  ---------------------------------------------------
  free energy    TOTEN  =       -35.64338312 eV

  energy without entropy =      -35.64338312  energy(sigma->0) =      -35.64338312


--------------------------------------------------------------------------------------------------------




----------------------------------------- Iteration   74(   4)  ---------------------------------------


    POTLOK:  cpu time   20.7368: real time   20.7763
    SETDIJ:  cpu time    0.0060: real time    0.0063
     EDDAV:  cpu time   36.0235: real time   36.0930
       DOS:  cpu time    0.0000: real time    0.0002
    CHARGE:  cpu time    5.2572: real time    5.2676
    MIXING:  cpu time    0.7139: real time    0.7158
    --------------------------------------------
      LOOP:  cpu time   62.7395: real time   62.8649

 eigenvalue-minimisations  :    48
 total energy-change (2. order) :-0.5043171E-07  (-0.3262833E-07)
 number of electron      16.0000011 magnetization 
 augmentation part        0.4498374 magnetization 

 Broyden mixing:
  rms(total) = 0.40203E-04    rms(broyden)= 0.40171E-04
  rms(prec ) = 0.41110E-04
  weight for this iteration     100.00

 eigenvalues of (default mixing * dielectric matrix)
  average eigenvalue GAMMA=   1.6566
  2.3639  1.1590  1.4469

 Free energy of the ion-electron system (eV)
  ---------------------------------------------------
  alpha Z        PSCENC =         0.04144063
  Ewald energy   TEWEN  =       702.86096265
  -Hartree energ DENC   =     -1177.86800117
  -exchange      EXHF   =         0.00000000
  -V(xc)+E(xc)   XCENC  =        54.86187500
  PAW double counting   =      1328.78802667    -1331.65583449
  entropy T*S    EENTRO =         0.00000000
  eigenvalues    EBANDS =      -208.83720061
  atomic energy  EATOM  =       596.16534815
  Solvation  Ediel_sol  =         0.00000000
  ---------------------------------------------------
  free energy    TOTEN  =       -35.64338318 eV

  energy without entropy =      -35.64338318  energy(sigma->0) =      -35.64338318


--------------------------------------------------------------------------------------------------------




----------------------------------------- Iteration   74(   5)  ---------------------------------------


    POTLOK:  cpu time   20.5749: real time   20.6163
    SETDIJ:  cpu time    0.0070: real time    0.0065
     EDDAV:  cpu time   35.9955: real time   36.0656
       DOS:  cpu time    0.0000: real time    0.0002
    CHARGE:  cpu time    5.0012: real time    5.0108
    MIXING:  cpu time    1.1028: real time    1.1051
    --------------------------------------------
      LOOP:  cpu time   62.6835: real time   62.8081

 eigenvalue-minimisations  :    48
 total energy-change (2. order) :-0.1734963E-07  (-0.1175852E-07)
 number of electron      16.0000011 magnetization 
 augmentation part        0.4498374 magnetization 

 Broyden mixing:
  rms(total) = 0.15684E-04    rms(broyden)= 0.15673E-04
  rms(prec ) = 0.16421E-04
  weight for this iteration     100.00

 eigenvalues of (default mixing * dielectric matrix)
  average eigenvalue GAMMA=   1.6741
  2.6349  1.8243  0.9513  1.2859

 Free energy of the ion-electron system (eV)
  ---------------------------------------------------
  alpha Z        PSCENC =         0.04144063
  Ewald energy   TEWEN  =       702.86096265
  -Hartree energ DENC   =     -1177.86771588
  -exchange      EXHF   =         0.00000000
  -V(xc)+E(xc)   XCENC  =        54.86186420
  PAW double counting   =      1328.79747042    -1331.66527519
  entropy T*S    EENTRO =         0.00000000
  eigenvalues    EBANDS =      -208.83747818
  atomic energy  EATOM  =       596.16534815
  Solvation  Ediel_sol  =         0.00000000
  ---------------------------------------------------
  free energy    TOTEN  =       -35.64338319 eV

  energy without entropy =      -35.64338319  energy(sigma->0) =      -35.64338319


--------------------------------------------------------------------------------------------------------




----------------------------------------- Iteration   74(   6)  ---------------------------------------


    POTLOK:  cpu time   21.8357: real time   21.8779
    SETDIJ:  cpu time    0.0060: real time    0.0063
     EDDAV:  cpu time   35.4396: real time   35.5084
       DOS:  cpu time    0.0000: real time    0.0002
    --------------------------------------------
      LOOP:  cpu time   57.2813: real time   57.3965

 eigenvalue-minimisations  :    48
 total energy-change (2. order) :-0.1832382E-07  (-0.6712321E-08)
 number of electron      16.0000011 magnetization 
 augmentation part        0.4498374 magnetization 

 Free energy of the ion-electron system (eV)
  ---------------------------------------------------
  alpha Z        PSCENC =         0.04144063
  Ewald energy   TEWEN  =       702.86096265
  -Hartree energ DENC   =     -1177.86753543
  -exchange      EXHF   =         0.00000000
  -V(xc)+E(xc)   XCENC  =        54.86185672
  PAW double counting   =      1328.80212804    -1331.66993113
  entropy T*S    EENTRO =         0.00000000
  eigenvalues    EBANDS =      -208.83765284
  atomic energy  EATOM  =       596.16534815
  Solvation  Ediel_sol  =         0.00000000
  ---------------------------------------------------
  free energy    TOTEN  =       -35.64338321 eV

  energy without entropy =      -35.64338321  energy(sigma->0) =      -35.64338321


--------------------------------------------------------------------------------------------------------




 average (electrostatic) potential at core
  the test charge radii are     0.5201  0.6991  0.7089
  (the norm of the test charge is              1.0000)
       1 -43.0793       2 -43.0811       3 -43.0806       4 -60.5344       5 -59.3468
       6 -74.8317
 
 
 
 E-fermi :  -6.1638     XC(G=0):  -0.0609     alpha+bet : -0.0137


 k-point     1 :       0.2500    0.2500    0.2500
  band No.  band energies     occupation 
      1     -23.8905      2.00000
      2     -19.2996      2.00000
      3     -13.8831      2.00000
      4     -11.7988      2.00000
      5     -11.7984      2.00000
      6      -8.3027      2.00000
      7      -8.3023      2.00000
      8      -7.1435      2.00000
      9      -0.7624      0.00000
     10      -0.6630      0.00000
     11      -0.6626      0.00000
     12       0.0241      0.00000

 k-point     2 :      -0.2500    0.2500    0.2500
  band No.  band energies     occupation 
      1     -23.8905      2.00000
      2     -19.2996      2.00000
      3     -13.8831      2.00000
      4     -11.7988      2.00000
      5     -11.7984      2.00000
      6      -8.3027      2.00000
      7      -8.3023      2.00000
      8      -7.1435      2.00000
      9      -0.7624      0.00000
     10      -0.6630      0.00000
     11      -0.6626      0.00000
     12       0.0239      0.00000

 k-point     3 :       0.2500   -0.2500    0.2500
  band No.  band energies     occupation 
      1     -23.8905      2.00000
      2     -19.2996      2.00000
      3     -13.8831      2.00000
      4     -11.7988      2.00000
      5     -11.7984      2.00000
      6      -8.3027      2.00000
      7      -8.3023      2.00000
      8      -7.1435      2.00000
      9      -0.7624      0.00000
     10      -0.6630      0.00000
     11      -0.6626      0.00000
     12       0.0241      0.00000

 k-point     4 :      -0.2500   -0.2500    0.2500
  band No.  band energies     occupation 
      1     -23.8905      2.00000
      2     -19.2996      2.00000
      3     -13.8831      2.00000
      4     -11.7988      2.00000
      5     -11.7984      2.00000
      6      -8.3027      2.00000
      7      -8.3023      2.00000
      8      -7.1435      2.00000
      9      -0.7624      0.00000
     10      -0.6630      0.00000
     11      -0.6626      0.00000
     12       0.0238      0.00000


--------------------------------------------------------------------------------------------------------


 soft charge-density along one line, spin component           1
         0         1         2         3         4         5         6         7         8         9
 total charge-density along one line
 
 pseudopotential strength for first ion, spin component:           1
 -2.363  -4.075  -0.002   0.001   0.000
 -4.075  -6.942  -0.005   0.002  -0.001
 -0.002  -0.005  -0.330  -0.002   0.001
  0.001   0.002  -0.002  -0.333   0.000
  0.000  -0.001   0.001   0.000  -0.334
 total augmentation occupancy for first ion, spin component:           1
  3.521  -0.634   0.413  -0.148   0.070
 -0.634   0.131  -0.076   0.027  -0.012
  0.413  -0.076   0.050  -0.015   0.007
 -0.148   0.027  -0.015   0.014  -0.002
  0.070  -0.012   0.007  -0.002   0.007


------------------------ aborting loop because EDIFF is reached ----------------------------------------


    CHARGE:  cpu time    5.2202: real time    5.2300
    FORLOC:  cpu time    2.3276: real time    2.3318
    FORNL :  cpu time   16.4745: real time   16.5072
    STRESS:  cpu time   50.3174: real time   50.4164
    FORCOR:  cpu time   21.2048: real time   21.2433
    FORHAR:  cpu time    7.1609: real time    7.1742
    MIXING:  cpu time    0.7109: real time    0.7122
    OFIELD:  cpu time    0.0000: real time    0.0000

  FORCE on cell =-STRESS in cart. coord.  units (eV):
  Direction    XX          YY          ZZ          XY          YZ          ZX
  --------------------------------------------------------------------------------------
  Alpha Z     0.04144     0.04144     0.04144
  Ewald     557.07386    44.57418   101.21262    52.23490   -18.06614  -178.53812
  Hartree   561.93686   293.11715   322.81350    27.32740    -9.45193   -93.33349
  E(xc)     -58.92729   -60.18569   -60.04662     0.12856    -0.04446    -0.44000
  Local   -1261.55979  -512.34424  -595.12805   -76.28427    26.38521   260.64646
  n-local   -26.44202   -24.39807   -24.63003    -0.20472     0.06957     0.71015
  augment     0.51840     0.99261     0.94128    -0.04795     0.01666     0.16545
  Kinetic   226.52616   257.20944   253.81743    -3.13337     1.08310    10.72561
  Fock        0.00000     0.00000     0.00000     0.00000     0.00000     0.00000
  -------------------------------------------------------------------------------------
  Total      -0.83239    -0.99318    -0.97843     0.02055    -0.00800    -0.06394
  in kB      -0.04939    -0.05894    -0.05806     0.00122    -0.00047    -0.00379
  external pressure =       -0.06 kB  Pullay stress =        0.00 kB


 VOLUME and BASIS-vectors are now :
 -----------------------------------------------------------------------------
  energy-cutoff  :      400.00
  volume of cell :    27000.00
      direct lattice vectors                 reciprocal lattice vectors
    30.000000000  0.000000000  0.000000000     0.033333333  0.000000000  0.000000000
     0.000000000 30.000000000  0.000000000     0.000000000  0.033333333  0.000000000
     0.000000000  0.000000000 30.000000000     0.000000000  0.000000000  0.033333333

  length of vectors
    30.000000000 30.000000000 30.000000000     0.033333333  0.033333333  0.033333333


 FORCES acting on ions
    electron-ion (+dipol)            ewald-force                    non-local-force                 convergence-correction
 -----------------------------------------------------------------------------------------------
   0.220E+02 0.583E+02 -.247E+02   -.229E+02 -.636E+02 0.266E+02   0.909E+00 0.528E+01 -.189E+01   0.125E-04 0.261E-05 0.212E-04
   0.518E+02 -.103E+02 0.413E+02   -.555E+02 0.114E+02 -.455E+02   0.366E+01 -.107E+01 0.421E+01   0.661E-07 0.688E-05 0.134E-04
   0.231E+02 -.382E+02 -.500E+02   -.241E+02 0.418E+02 0.543E+02   0.101E+01 -.364E+01 -.424E+01   0.176E-04 0.297E-05 0.167E-04
   0.114E+03 0.116E+02 -.394E+02   -.121E+03 -.123E+02 0.419E+02   0.713E+01 0.726E+00 -.247E+01   0.633E-04 0.247E-04 0.107E-03
   -.217E+03 -.219E+02 0.751E+02   0.242E+03 0.244E+02 -.837E+02   -.250E+02 -.253E+01 0.866E+01   0.723E-04 0.555E-04 0.209E-03
   0.153E+02 0.146E+01 -.541E+01   -.182E+02 -.175E+01 0.643E+01   0.290E+01 0.283E+00 -.101E+01   0.722E-04 0.350E-04 0.157E-03
 -----------------------------------------------------------------------------------------------
   0.940E+01 0.949E+00 -.325E+01   0.000E+00 0.000E+00 0.000E+00   -.941E+01 -.951E+00 0.326E+01   0.238E-03 0.128E-03 0.524E-03
 
 
 POSITION                                       TOTAL-FORCE (eV/Angst)
 -----------------------------------------------------------------------------------
     14.41565     13.85400     15.57587        -0.001746      0.000132      0.001002
     13.88147     15.08459     14.39198        -0.001447      0.001129     -0.002912
     14.39691     15.58450     16.03071        -0.000839      0.002603      0.001983
     14.58434     14.87693     15.21092        -0.001824     -0.000675      0.001153
     17.02738     15.12428     14.36592         0.005353     -0.002144     -0.002016
     15.91690     15.01216     14.75039         0.000504     -0.001045      0.000789
 -----------------------------------------------------------------------------------
    total drift:                               -0.010939     -0.001813      0.005660


--------------------------------------------------------------------------------------------------------



  FREE ENERGIE OF THE ION-ELECTRON SYSTEM (eV)
  ---------------------------------------------------
  free  energy   TOTEN  =       -35.64338321 eV

  energy  without entropy=      -35.64338321  energy(sigma->0) =      -35.64338321
 
 d Force =-0.4240056E-06[-0.591E-06,-0.257E-06]  d Energy =-0.4142065E-06-0.980E-08
 d Force =-0.2032167E-01[-0.203E-01,-0.203E-01]  d Ewald  =-0.2032167E-01 0.641E-09


--------------------------------------------------------------------------------------------------------


    POTLOK:  cpu time   18.9431: real time   18.9776


--------------------------------------------------------------------------------------------------------


 NEB: the previous image is higher in energy: F
 NEB: the next image is higher in energy    : T
 NEB: only next energy greater

 NEB: Tangent
 ----------------------------------------------
      0.15823     -0.01791      0.18422
     -0.11400      0.04486      0.43732
      0.40623     -0.03492      0.18371
      0.09281     -0.01729      0.16275
     -0.30198     -0.12512     -0.56275
     -0.12390     -0.07289     -0.23419

 NEB: forces: par spring, perp REAL, dneb     0.047158    0.008321    0.000000
 NEB: distance to prev, next image, angle between     1.085936    1.095367  148.713715
 NEB: projections on to tangent (spring, REAL)     0.047158   -0.001574

 stress matrix after NEB project (eV)
     -0.83239      0.02055     -0.06394
      0.02055     -0.99318     -0.00800
     -0.06394     -0.00800     -0.97843
  FORCES: max atom, RMS     0.031973    0.019549
  FORCE total and by dimension    0.047886    0.029440
  Stress total and by dimension    1.626577    0.993178
 OPT: skip step - force has converged


--------------------------------------------------------------------------------------------------------


  
 reached required accuracy - stopping structural energy minimisation
     LOOP+:  cpu time  579.5969: real time  580.8453
    4ORBIT:  cpu time    0.0000: real time    0.0000

 total amount of memory used by VASP on root node  3203889. kBytes
========================================================================

   base      :      30000. kBytes
   nonlr-proj:        693. kBytes
   fftplans  :     924480. kBytes
   grid      :    1872000. kBytes
   one-center:         18. kBytes
   wavefun   :     376698. kBytes
 
  
  
 General timing and accounting informations for this job:
 ========================================================
  
                  Total CPU time used (sec):    49434.695
                            User time (sec):    48773.354
                          System time (sec):      661.340
                         Elapsed time (sec):    49851.791
  
                   Maximum memory used (kb):     4764408.
                   Average memory used (kb):           0.
  
                          Minor page faults:      7347621
                          Major page faults:            8
                 Voluntary context switches:         9084
