unknown system                          
           1
    30.000000    0.000000    0.000000
     0.000000   30.000000    0.000000
     0.000000    0.000000   30.000000
   H    C    N 
   3   2   1
Direct configuration=     1
   0.48051015  0.46172576  0.51897939
   0.46283582  0.50272906  0.47943456
   0.47956725  0.51939432  0.53420236
   0.48609365  0.49585918  0.50689443
   0.56771658  0.50444853  0.47936334
   0.53061137  0.50054543  0.49186808
Direct configuration=     2
   0.48051003  0.46172667  0.51898205
   0.46283396  0.50273007  0.47943768
   0.47957086  0.51939558  0.53420402
   0.48609444  0.49585994  0.50689567
   0.56771659  0.50444471  0.47935773
   0.53060978  0.50054390  0.49186608
Direct configuration=     3
   0.48050974  0.46172829  0.51898576
   0.46283140  0.50273154  0.47944215
   0.47957597  0.51939740  0.53420629
   0.48609519  0.49586089  0.50689747
   0.56771608  0.50443903  0.47935011
   0.53060848  0.50054174  0.49186296
Direct configuration=     4
   0.48050907  0.46173058  0.51899013
   0.46282840  0.50273339  0.47944739
   0.47958198  0.51939970  0.53420892
   0.48609547  0.49586195  0.50689970
   0.56771318  0.50443156  0.47934218
   0.53061021  0.50053932  0.49185821
Direct configuration=     5
   0.48050790  0.46173336  0.51899477
   0.46282525  0.50273559  0.47945275
   0.47958838  0.51940242  0.53421155
   0.48609646  0.49586335  0.50690194
   0.56771367  0.50442322  0.47933298
   0.53060820  0.50053599  0.49185451
Direct configuration=     6
   0.48050588  0.46173657  0.51899921
   0.46282245  0.50273816  0.47945740
   0.47959441  0.51940559  0.53421382
   0.48609727  0.49586524  0.50690391
   0.56771226  0.50441333  0.47932572
   0.53060911  0.50053255  0.49185032
Direct configuration=     7
   0.48050254  0.46174060  0.51900343
   0.46282033  0.50274143  0.47946110
   0.47960007  0.51940965  0.53421550
   0.48609827  0.49586800  0.50690518
   0.56771283  0.50440112  0.47931963
   0.53060880  0.50052822  0.49184737
Direct configuration=     8
   0.48049766  0.46174564  0.51900687
   0.46281941  0.50274550  0.47946306
   0.47960480  0.51941462  0.53421602
   0.48609856  0.49587127  0.50690578
   0.56771371  0.50438660  0.47931671
   0.53060995  0.50052333  0.49184533
Direct configuration=     9
   0.48049119  0.46175171  0.51900925
   0.46282004  0.50275060  0.47946276
   0.47960846  0.51942059  0.53421489
   0.48609841  0.49587489  0.50690580
   0.56771741  0.50437005  0.47931683
   0.53060959  0.50051747  0.49184551
Direct configuration=    10
   0.48048281  0.46175848  0.51901083
   0.46282217  0.50275704  0.47946018
   0.47961078  0.51942786  0.53421214
   0.48609680  0.49587909  0.50690554
   0.56771714  0.50435011  0.47932183
   0.53061611  0.50051155  0.49184540
Direct configuration=    11
   0.48048259  0.46175855  0.51901086
   0.46282244  0.50275734  0.47946002
   0.47961087  0.51942821  0.53421194
   0.48609755  0.49587931  0.50690521
   0.56772110  0.50434989  0.47932068
   0.53061126  0.50051081  0.49184723
Direct configuration=    12
   0.48048252  0.46175858  0.51901087
   0.46282249  0.50275742  0.47945997
   0.47961087  0.51942829  0.53421189
   0.48609752  0.49587934  0.50690520
   0.56772085  0.50434971  0.47932082
   0.53061156  0.50051078  0.49184718
Direct configuration=    13
   0.48048238  0.46175863  0.51901089
   0.46282259  0.50275757  0.47945991
   0.47961090  0.51942846  0.53421180
   0.48609747  0.49587941  0.50690520
   0.56772044  0.50434934  0.47932104
   0.53061203  0.50051071  0.49184711
Direct configuration=    14
   0.48048219  0.46175873  0.51901095
   0.46282274  0.50275781  0.47945986
   0.47961099  0.51942872  0.53421167
   0.48609743  0.49587951  0.50690520
   0.56771999  0.50434876  0.47932124
   0.53061250  0.50051056  0.49184705
Direct configuration=    15
   0.48048197  0.46175886  0.51901108
   0.46282291  0.50275814  0.47945987
   0.47961119  0.51942907  0.53421153
   0.48609744  0.49587964  0.50690522
   0.56771962  0.50434801  0.47932127
   0.53061273  0.50051031  0.49184704
Direct configuration=    16
   0.48048176  0.46175904  0.51901128
   0.46282308  0.50275854  0.47945999
   0.47961154  0.51942950  0.53421140
   0.48609751  0.49587980  0.50690529
   0.56771940  0.50434709  0.47932106
   0.53061265  0.50050995  0.49184707
Direct configuration=    17
   0.48048157  0.46175927  0.51901160
   0.46282322  0.50275901  0.47946028
   0.47961208  0.51943000  0.53421130
   0.48609764  0.49587998  0.50690541
   0.56771927  0.50434601  0.47932053
   0.53061225  0.50050948  0.49184711
Direct configuration=    18
   0.48048142  0.46175957  0.51901212
   0.46282332  0.50275962  0.47946087
   0.47961299  0.51943064  0.53421127
   0.48609786  0.49588019  0.50690567
   0.56771909  0.50434457  0.47931947
   0.53061154  0.50050883  0.49184705
Direct configuration=    19
   0.48048137  0.46176000  0.51901297
   0.46282331  0.50276040  0.47946195
   0.47961446  0.51943147  0.53421138
   0.48609815  0.49588046  0.50690616
   0.56771855  0.50434262  0.47931765
   0.53061067  0.50050798  0.49184672
Direct configuration=    20
   0.48048150  0.46176058  0.51901431
   0.46282311  0.50276142  0.47946381
   0.47961678  0.51943254  0.53421175
   0.48609851  0.49588076  0.50690703
   0.56771725  0.50433997  0.47931469
   0.53060985  0.50050685  0.49184586
Direct configuration=    21
   0.48048193  0.46176136  0.51901640
   0.46282255  0.50276273  0.47946687
   0.47962037  0.51943391  0.53421255
   0.48609899  0.49588111  0.50690845
   0.56771482  0.50433637  0.47931001
   0.53060910  0.50050537  0.49184414
Direct configuration=    22
   0.48048286  0.46176237  0.51901961
   0.46282139  0.50276444  0.47947172
   0.47962585  0.51943569  0.53421406
   0.48609970  0.49588152  0.50691068
   0.56771110  0.50433150  0.47930258
   0.53060804  0.50050333  0.49184127
Direct configuration=    23
   0.48048454  0.46176367  0.51902446
   0.46281931  0.50276666  0.47947918
   0.47963406  0.51943800  0.53421670
   0.48610085  0.49588200  0.50691407
   0.56770615  0.50432502  0.47929093
   0.53060584  0.50050046  0.49183690
Direct configuration=    24
   0.48048726  0.46176526  0.51903160
   0.46281578  0.50276954  0.47949029
   0.47964606  0.51944100  0.53422106
   0.48610270  0.49588261  0.50691910
   0.56769968  0.50431640  0.47927325
   0.53060195  0.50049642  0.49183041
Direct configuration=    25
   0.48049134  0.46176714  0.51904188
   0.46281013  0.50277326  0.47950630
   0.47966311  0.51944490  0.53422793
   0.48610527  0.49588334  0.50692638
   0.56769043  0.50430495  0.47924770
   0.53059704  0.50049095  0.49182061
Direct configuration=    26
   0.48049648  0.46176930  0.51905564
   0.46280178  0.50277790  0.47952715
   0.47968530  0.51945001  0.53423790
   0.48610815  0.49588415  0.50693607
   0.56767824  0.50429030  0.47921400
   0.53059258  0.50048394  0.49180684
Direct configuration=    27
   0.48050175  0.46177167  0.51907296
   0.46279020  0.50278340  0.47955172
   0.47971174  0.51945660  0.53425151
   0.48611123  0.49588559  0.50694805
   0.56766649  0.50427230  0.47917174
   0.53058756  0.50047500  0.49179003
Direct configuration=    28
   0.48050410  0.46177473  0.51909304
   0.46277517  0.50278937  0.47957618
   0.47973876  0.51946500  0.53426908
   0.48611363  0.49588821  0.50696082
   0.56765768  0.50425104  0.47912464
   0.53058666  0.50046410  0.49177146
Direct configuration=    29
   0.48050359  0.46177493  0.51909283
   0.46277527  0.50278930  0.47957561
   0.47973815  0.51946496  0.53426894
   0.48611362  0.49588836  0.50696050
   0.56765833  0.50425102  0.47912535
   0.53058692  0.50046406  0.49177185
Direct configuration=    30
   0.48050256  0.46177536  0.51909243
   0.46277549  0.50278918  0.47957448
   0.47973695  0.51946489  0.53426865
   0.48611361  0.49588866  0.50695990
   0.56765955  0.50425094  0.47912677
   0.53058751  0.50046398  0.49177257
Direct configuration=    31
   0.48050105  0.46177600  0.51909184
   0.46277583  0.50278901  0.47957285
   0.47973521  0.51946478  0.53426820
   0.48611356  0.49588910  0.50695903
   0.56766119  0.50425079  0.47912889
   0.53058851  0.50046387  0.49177358
Direct configuration=    32
   0.48049910  0.46177688  0.51909109
   0.46277631  0.50278880  0.47957076
   0.47973299  0.51946465  0.53426758
   0.48611350  0.49588967  0.50695794
   0.56766314  0.50425053  0.47913166
   0.53058993  0.50046372  0.49177482
Direct configuration=    33
   0.48049673  0.46177800  0.51909019
   0.46277696  0.50278858  0.47956832
   0.47973040  0.51946449  0.53426678
   0.48611343  0.49589037  0.50695667
   0.56766534  0.50425012  0.47913498
   0.53059163  0.50046351  0.49177630
Direct configuration=    34
   0.48049401  0.46177941  0.51908918
   0.46277781  0.50278838  0.47956561
   0.47972757  0.51946432  0.53426577
   0.48611339  0.49589118  0.50695526
   0.56766781  0.50424949  0.47913869
   0.53059337  0.50046319  0.49177803
Direct configuration=    35
   0.48049066  0.46178131  0.51908803
   0.46277903  0.50278824  0.47956251
   0.47972436  0.51946418  0.53426439
   0.48611344  0.49589221  0.50695362
   0.56767074  0.50424841  0.47914301
   0.53059513  0.50046266  0.49178019
Direct configuration=    36
   0.48048667  0.46178387  0.51908686
   0.46278077  0.50278832  0.47955925
   0.47972114  0.51946418  0.53426259
   0.48611360  0.49589347  0.50695186
   0.56767367  0.50424647  0.47914772
   0.53059690  0.50046177  0.49178266
Direct configuration=    37
   0.48048663  0.46178392  0.51908688
   0.46278081  0.50278835  0.47955928
   0.47972119  0.51946421  0.53426257
   0.48611361  0.49589349  0.50695187
   0.56767361  0.50424636  0.47914769
   0.53059690  0.50046173  0.49178265
Direct configuration=    38
   0.48048657  0.46178402  0.51908695
   0.46278089  0.50278843  0.47955938
   0.47972134  0.51946428  0.53426253
   0.48611363  0.49589352  0.50695191
   0.56767346  0.50424613  0.47914758
   0.53059689  0.50046164  0.49178263
Direct configuration=    39
   0.48048651  0.46178417  0.51908709
   0.46278098  0.50278855  0.47955957
   0.47972161  0.51946438  0.53426250
   0.48611369  0.49589356  0.50695199
   0.56767322  0.50424577  0.47914734
   0.53059684  0.50046149  0.49178256
Direct configuration=    40
   0.48048646  0.46178436  0.51908731
   0.46278106  0.50278871  0.47955992
   0.47972205  0.51946453  0.53426251
   0.48611378  0.49589362  0.50695212
   0.56767286  0.50424527  0.47914689
   0.53059672  0.50046127  0.49178242
Direct configuration=    41
   0.48048645  0.46178460  0.51908766
   0.46278111  0.50278892  0.47956049
   0.47972272  0.51946470  0.53426257
   0.48611392  0.49589370  0.50695234
   0.56767235  0.50424462  0.47914612
   0.53059651  0.50046098  0.49178218
Direct configuration=    42
   0.48048653  0.46178487  0.51908817
   0.46278110  0.50278918  0.47956134
   0.47972369  0.51946492  0.53426273
   0.48611413  0.49589378  0.50695268
   0.56767166  0.50424379  0.47914494
   0.53059617  0.50046060  0.49178179
Direct configuration=    43
   0.48048675  0.46178522  0.51908899
   0.46278097  0.50278955  0.47956275
   0.47972524  0.51946521  0.53426307
   0.48611446  0.49589387  0.50695324
   0.56767060  0.50424263  0.47914295
   0.53059562  0.50046005  0.49178111
Direct configuration=    44
   0.48048723  0.46178564  0.51909029
   0.46278061  0.50279007  0.47956504
   0.47972768  0.51946559  0.53426374
   0.48611496  0.49589398  0.50695415
   0.56766895  0.50424100  0.47913970
   0.53059475  0.50045925  0.49177995
Direct configuration=    45
   0.48048812  0.46178615  0.51909232
   0.46277988  0.50279080  0.47956868
   0.47973149  0.51946609  0.53426495
   0.48611574  0.49589409  0.50695562
   0.56766641  0.50423871  0.47913449
   0.53059343  0.50045810  0.49177802
Direct configuration=    46
   0.48048969  0.46178674  0.51909546
   0.46277853  0.50279184  0.47957438
   0.47973737  0.51946673  0.53426703
   0.48611690  0.49589417  0.50695794
   0.56766252  0.50423547  0.47912631
   0.53059149  0.50045645  0.49177490
Direct configuration=    47
   0.48049226  0.46178739  0.51910021
   0.46277620  0.50279333  0.47958313
   0.47974630  0.51946754  0.53427047
   0.48611860  0.49589418  0.50696155
   0.56765669  0.50423091  0.47911370
   0.53058866  0.50045409  0.49176999
Direct configuration=    48
   0.48049630  0.46178804  0.51910726
   0.46277238  0.50279543  0.47959627
   0.47975958  0.51946854  0.53427599
   0.48612105  0.49589402  0.50696703
   0.56764820  0.50422457  0.47909468
   0.53058457  0.50045072  0.49176249
Direct configuration=    49
   0.48050196  0.46178865  0.51911707
   0.46276663  0.50279829  0.47961434
   0.47977789  0.51946991  0.53428415
   0.48612421  0.49589363  0.50697479
   0.56763701  0.50421606  0.47906801
   0.53057914  0.50044615  0.49175195
Direct configuration=    50
   0.48050926  0.46178908  0.51913009
   0.46275839  0.50280203  0.47963758
   0.47980162  0.51947187  0.53429562
   0.48612794  0.49589289  0.50698519
   0.56762328  0.50420519  0.47903254
   0.53057261  0.50044021  0.49173801
Direct configuration=    51
   0.48051790  0.46178911  0.51914669
   0.46274698  0.50280671  0.47966565
   0.47983067  0.51947474  0.53431112
   0.48613184  0.49589183  0.50699844
   0.56760770  0.50419186  0.47898768
   0.53056584  0.50043271  0.49172038
Direct configuration=    52
   0.48052689  0.46178843  0.51916708
   0.46273169  0.50281227  0.47969703
   0.47986379  0.51947891  0.53433139
   0.48613535  0.49589089  0.50701424
   0.56759187  0.50417598  0.47893376
   0.53056059  0.50042358  0.49169936
Direct configuration=    53
   0.48053275  0.46178715  0.51919040
   0.46271209  0.50281813  0.47972659
   0.47989570  0.51948470  0.53435634
   0.48613854  0.49589149  0.50703042
   0.56758146  0.50415824  0.47887487
   0.53055929  0.50041271  0.49167774
Direct configuration=    54
   0.48053229  0.46178734  0.51919016
   0.46271225  0.50281801  0.47972598
   0.47989496  0.51948462  0.53435611
   0.48613851  0.49589167  0.50703010
   0.56758178  0.50415830  0.47887572
   0.53055988  0.50041275  0.49167807
Direct configuration=    55
   0.48053138  0.46178772  0.51918970
   0.46271257  0.50281778  0.47972477
   0.47989352  0.51948449  0.53435565
   0.48613845  0.49589204  0.50702947
   0.56758251  0.50415842  0.47887736
   0.53056092  0.50041282  0.49167875
Direct configuration=    56
   0.48053004  0.46178832  0.51918902
   0.46271305  0.50281744  0.47972301
   0.47989142  0.51948429  0.53435498
   0.48613841  0.49589256  0.50702854
   0.56758377  0.50415861  0.47887969
   0.53056222  0.50041288  0.49167983
Direct configuration=    57
   0.48052831  0.46178914  0.51918814
   0.46271371  0.50281703  0.47972076
   0.47988872  0.51948405  0.53435409
   0.48613840  0.49589322  0.50702735
   0.56758563  0.50415881  0.47888259
   0.53056355  0.50041294  0.49168133
Direct configuration=    58
   0.48052623  0.46179020  0.51918707
   0.46271455  0.50281654  0.47971808
   0.47988551  0.51948377  0.53435299
   0.48613843  0.49589399  0.50702593
   0.56758803  0.50415900  0.47888598
   0.53056487  0.50041296  0.49168321
Direct configuration=    59
   0.48052384  0.46179153  0.51918586
   0.46271559  0.50281602  0.47971506
   0.47988189  0.51948347  0.53435168
   0.48613848  0.49589483  0.50702433
   0.56759075  0.50415911  0.47888981
   0.53056628  0.50041297  0.49168540
Direct configuration=    60
   0.48052087  0.46179334  0.51918439
   0.46271700  0.50281543  0.47971146
   0.47987755  0.51948313  0.53435002
   0.48613853  0.49589579  0.50702244
   0.56759372  0.50415904  0.47889448
   0.53056820  0.50041297  0.49168800
Direct configuration=    61
   0.48051730  0.46179576  0.51918272
   0.46271889  0.50281483  0.47970741
   0.47987263  0.51948278  0.53434792
   0.48613857  0.49589690  0.50702034
   0.56759662  0.50415855  0.47889994
   0.53057076  0.50041291  0.49169092
Direct configuration=    62
   0.48051314  0.46179895  0.51918114
   0.46272148  0.50281443  0.47970340
   0.47986770  0.51948255  0.53434537
   0.48613878  0.49589820  0.50701821
   0.56759947  0.50415712  0.47890534
   0.53057307  0.50041252  0.49169424
Direct configuration=    63
   0.48051314  0.46179898  0.51918118
   0.46272152  0.50281446  0.47970346
   0.47986778  0.51948258  0.53434537
   0.48613880  0.49589821  0.50701823
   0.56759944  0.50415703  0.47890523
   0.53057300  0.50041248  0.49169424
Direct configuration=    64
   0.48051315  0.46179903  0.51918129
   0.46272157  0.50281453  0.47970364
   0.47986799  0.51948263  0.53434539
   0.48613884  0.49589823  0.50701829
   0.56759934  0.50415683  0.47890495
   0.53057284  0.50041239  0.49169421
Direct configuration=    65
   0.48051319  0.46179911  0.51918150
   0.46272162  0.50281464  0.47970398
   0.47986837  0.51948270  0.53434545
   0.48613891  0.49589826  0.50701841
   0.56759911  0.50415652  0.47890444
   0.53057261  0.50041226  0.49169412
Direct configuration=    66
   0.48051329  0.46179921  0.51918182
   0.46272165  0.50281479  0.47970455
   0.47986899  0.51948278  0.53434560
   0.48613903  0.49589829  0.50701862
   0.56759870  0.50415607  0.47890361
   0.53057230  0.50041206  0.49169392
Direct configuration=    67
   0.48051348  0.46179932  0.51918230
   0.46272163  0.50281500  0.47970542
   0.47986991  0.51948288  0.53434585
   0.48613921  0.49589832  0.50701896
   0.56759804  0.50415546  0.47890236
   0.53057193  0.50041179  0.49169356
Direct configuration=    68
   0.48051379  0.46179944  0.51918297
   0.46272151  0.50281528  0.47970670
   0.47987123  0.51948298  0.53434627
   0.48613946  0.49589834  0.50701946
   0.56759708  0.50415466  0.47890057
   0.53057146  0.50041143  0.49169297
Direct configuration=    69
   0.48051434  0.46179957  0.51918400
   0.46272123  0.50281567  0.47970872
   0.47987328  0.51948309  0.53434699
   0.48613988  0.49589833  0.50702028
   0.56759555  0.50415354  0.47889775
   0.53057079  0.50041091  0.49169198
Direct configuration=    70
   0.48051525  0.46179970  0.51918557
   0.46272067  0.50281624  0.47971186
   0.47987644  0.51948318  0.53434819
   0.48614053  0.49589829  0.50702159
   0.56759324  0.50415195  0.47889337
   0.53056980  0.50041015  0.49169039
Direct configuration=    71
   0.48051671  0.46179979  0.51918791
   0.46271967  0.50281705  0.47971666
   0.47988123  0.51948323  0.53435013
   0.48614153  0.49589816  0.50702361
   0.56758982  0.50414971  0.47888667
   0.53056830  0.50040903  0.49168790
Direct configuration=    72
   0.48051883  0.46179985  0.51919122
   0.46271810  0.50281818  0.47972344
   0.47988800  0.51948328  0.53435303
   0.48614294  0.49589792  0.50702652
   0.56758515  0.50414666  0.47887709
   0.53056614  0.50040749  0.49168435
Direct configuration=    73
   0.48052172  0.46179985  0.51919570
   0.46271579  0.50281969  0.47973254
   0.47989711  0.51948336  0.53435714
   0.48614477  0.49589753  0.50703051
   0.56757918  0.50414262  0.47886399
   0.53056320  0.50040540  0.49167953
Direct configuration=    74
   0.48052172  0.46179985  0.51919570
   0.46271579  0.50281969  0.47973254
   0.47989711  0.51948336  0.53435714
   0.48614477  0.49589753  0.50703051
   0.56757918  0.50414262  0.47886399
   0.53056320  0.50040540  0.49167953
