  22  22   0   0
  0.1227273E+04  0.3000000E-08  0.3000000E-08  0.3000000E-08  0.0000000E+00
  1.000000000000000E-004
  CAR 
 unknown system                          
      2.19912387    -28.22291860  301     -4.49293323      1.00000000
    -28.223  0.0000E+00  0.0000E+00
    -28.122  0.0000E+00  0.0000E+00
    -28.020  0.0000E+00  0.0000E+00
    -27.919  0.0000E+00  0.0000E+00
    -27.817  0.0000E+00  0.0000E+00
    -27.716  0.0000E+00  0.0000E+00
    -27.614  0.0000E+00  0.0000E+00
    -27.513  0.0000E+00  0.0000E+00
    -27.412  0.0000E+00  0.0000E+00
    -27.310  0.4890E-15  0.4959E-16
    -27.209  0.1025E-12  0.1044E-13
    -27.107  0.1300E-10  0.1329E-11
    -27.006  0.9955E-09  0.1023E-09
    -26.905  0.4608E-07  0.4775E-08
    -26.803  0.1291E-05  0.1357E-06
    -26.702  0.2195E-04  0.2361E-05
    -26.600  0.2266E-03  0.2534E-04
    -26.499  0.1424E-02  0.1697E-03
    -26.398  0.5452E-02  0.7226E-03
    -26.296  0.1274E-01  0.2015E-02
    -26.195  0.1819E-01  0.3859E-02
    -26.093  0.1587E-01  0.5468E-02
    -25.992  0.8473E-02  0.6327E-02
    -25.891  0.2943E-02  0.6626E-02
    -25.789  0.1801E-02  0.6808E-02
    -25.688  0.5062E-02  0.7322E-02
    -25.586  0.1214E-01  0.8553E-02
    -25.485  0.1801E-01  0.1038E-01
    -25.384  0.1632E-01  0.1203E-01
    -25.282  0.9041E-02  0.1295E-01
    -25.181  0.3058E-02  0.1326E-01
    -25.079  0.6307E-03  0.1332E-01
    -24.978  0.7924E-04  0.1333E-01
    -24.876  0.6053E-05  0.1333E-01
    -24.775  0.2807E-06  0.1333E-01
    -24.674  0.7887E-08  0.1333E-01
    -24.572  0.1341E-09  0.1333E-01
    -24.471  0.1401E-11  0.1333E-01
    -24.369  0.3479E-11  0.1333E-01
    -24.268  0.3065E-09  0.1333E-01
    -24.167  0.1636E-07  0.1333E-01
    -24.065  0.5284E-06  0.1333E-01
    -23.964  0.1035E-04  0.1333E-01
    -23.862  0.1230E-03  0.1335E-01
    -23.761  0.8894E-03  0.1344E-01
    -23.660  0.3918E-02  0.1383E-01
    -23.558  0.1053E-01  0.1490E-01
    -23.457  0.1729E-01  0.1666E-01
    -23.355  0.1734E-01  0.1841E-01
    -23.254  0.1062E-01  0.1949E-01
    -23.153  0.3987E-02  0.1990E-01
    -23.051  0.1041E-02  0.2000E-01
    -22.950  0.1074E-02  0.2011E-01
    -22.848  0.4110E-02  0.2053E-01
    -22.747  0.1082E-01  0.2162E-01
    -22.646  0.1744E-01  0.2339E-01
    -22.544  0.1718E-01  0.2513E-01
    -22.443  0.1034E-01  0.2618E-01
    -22.341  0.3799E-02  0.2657E-01
    -22.240  0.8517E-03  0.2665E-01
    -22.139  0.1163E-03  0.2667E-01
    -22.037  0.9664E-05  0.2667E-01
    -21.936  0.4874E-06  0.2667E-01
    -21.834  0.1490E-07  0.2667E-01
    -21.733  0.2757E-09  0.2667E-01
    -21.631  0.3083E-11  0.2667E-01
    -21.530  0.2080E-13  0.2667E-01
    -21.429  0.8759E-16  0.2667E-01
    -21.327  0.0000E+00  0.2667E-01
    -21.226  0.0000E+00  0.2667E-01
    -21.124  0.0000E+00  0.2667E-01
    -21.023  0.0000E+00  0.2667E-01
    -20.922  0.0000E+00  0.2667E-01
    -20.820  0.0000E+00  0.2667E-01
    -20.719  0.5474E-16  0.2667E-01
    -20.617  0.1424E-13  0.2667E-01
    -20.516  0.2188E-11  0.2667E-01
    -20.415  0.2030E-09  0.2667E-01
    -20.313  0.1137E-07  0.2667E-01
    -20.212  0.3857E-06  0.2667E-01
    -20.110  0.7926E-05  0.2667E-01
    -20.009  0.9889E-04  0.2668E-01
    -19.908  0.7504E-03  0.2675E-01
    -19.806  0.3468E-02  0.2711E-01
    -19.705  0.9778E-02  0.2810E-01
    -19.603  0.1684E-01  0.2980E-01
    -19.502  0.1771E-01  0.3160E-01
    -19.401  0.1138E-01  0.3275E-01
    -19.299  0.4469E-02  0.3321E-01
    -19.198  0.1070E-02  0.3332E-01
    -19.096  0.1562E-03  0.3333E-01
    -18.995  0.1388E-04  0.3333E-01
    -18.893  0.1149E-05  0.3333E-01
    -18.792  0.8212E-05  0.3333E-01
    -18.691  0.1016E-03  0.3334E-01
    -18.589  0.7661E-03  0.3342E-01
    -18.488  0.3521E-02  0.3378E-01
    -18.386  0.9869E-02  0.3478E-01
    -18.285  0.1689E-01  0.3649E-01
    -18.184  0.1767E-01  0.3828E-01
    -18.082  0.1129E-01  0.3943E-01
    -17.981  0.4407E-02  0.3988E-01
    -17.879  0.1057E-02  0.3998E-01
    -17.778  0.2427E-03  0.4001E-01
    -17.677  0.7132E-03  0.4008E-01
    -17.575  0.3298E-02  0.4042E-01
    -17.474  0.9478E-02  0.4138E-01
    -17.372  0.1663E-01  0.4306E-01
    -17.271  0.1784E-01  0.4487E-01
    -17.170  0.1169E-01  0.4606E-01
    -17.068  0.4678E-02  0.4653E-01
    -16.967  0.1142E-02  0.4665E-01
    -16.865  0.1700E-03  0.4667E-01
    -16.764  0.1591E-04  0.4667E-01
    -16.663  0.1104E-04  0.4667E-01
    -16.561  0.1215E-03  0.4668E-01
    -16.460  0.8810E-03  0.4677E-01
    -16.358  0.3892E-02  0.4716E-01
    -16.257  0.1049E-01  0.4823E-01
    -16.156  0.1726E-01  0.4998E-01
    -16.054  0.1736E-01  0.5174E-01
    -15.953  0.1067E-01  0.5282E-01
    -15.851  0.4003E-02  0.5323E-01
    -15.750  0.9163E-03  0.5332E-01
    -15.648  0.1278E-03  0.5333E-01
    -15.547  0.1084E-04  0.5333E-01
    -15.446  0.5723E-06  0.5333E-01
    -15.344  0.4697E-06  0.5333E-01
    -15.243  0.9071E-05  0.5333E-01
    -15.141  0.1104E-03  0.5335E-01
    -15.040  0.8180E-03  0.5343E-01
    -14.939  0.3690E-02  0.5380E-01
    -14.837  0.1016E-01  0.5483E-01
    -14.736  0.1707E-01  0.5656E-01
    -14.634  0.1753E-01  0.5834E-01
    -14.533  0.1100E-01  0.5946E-01
    -14.432  0.4240E-02  0.5989E-01
    -14.330  0.1230E-02  0.6001E-01
    -14.229  0.1649E-02  0.6018E-01
    -14.127  0.5687E-02  0.6076E-01
    -14.026  0.1302E-01  0.6208E-01
    -13.925  0.1826E-01  0.6393E-01
    -13.823  0.1564E-01  0.6551E-01
    -13.722  0.8237E-02  0.6635E-01
    -13.620  0.3076E-02  0.6666E-01
    -13.519  0.2939E-02  0.6696E-01
    -13.418  0.7863E-02  0.6776E-01
    -13.316  0.1531E-01  0.6931E-01
    -13.215  0.1833E-01  0.7117E-01
    -13.113  0.1342E-01  0.7253E-01
    -13.012  0.6032E-02  0.7314E-01
    -12.910  0.1940E-02  0.7334E-01
    -12.809  0.2044E-02  0.7354E-01
    -12.708  0.6357E-02  0.7419E-01
    -12.606  0.1380E-01  0.7559E-01
    -12.505  0.1838E-01  0.7745E-01
    -12.403  0.1496E-01  0.7897E-01
    -12.302  0.7438E-02  0.7972E-01
    -12.201  0.2258E-02  0.7995E-01
    -12.099  0.4222E-03  0.8000E-01
    -11.998  0.1078E-03  0.8001E-01
    -11.896  0.5171E-03  0.8006E-01
    -11.795  0.2669E-02  0.8033E-01
    -11.694  0.8638E-02  0.8121E-01
    -11.592  0.1802E-01  0.8303E-01
    -11.491  0.2594E-01  0.8566E-01
    -11.389  0.2823E-01  0.8853E-01
    -11.288  0.2417E-01  0.9098E-01
    -11.187  0.1614E-01  0.9261E-01
    -11.085  0.1139E-01  0.9377E-01
    -10.984  0.1643E-01  0.9544E-01
    -10.882  0.2804E-01  0.9828E-01
    -10.781  0.3429E-01  0.1018E+00
    -10.680  0.2837E-01  0.1046E+00
    -10.578  0.1800E-01  0.1065E+00
    -10.477  0.1486E-01  0.1080E+00
    -10.375  0.1970E-01  0.1100E+00
    -10.274  0.2578E-01  0.1126E+00
    -10.173  0.3244E-01  0.1159E+00
    -10.071  0.4224E-01  0.1201E+00
     -9.970  0.4853E-01  0.1251E+00
     -9.868  0.4214E-01  0.1293E+00
     -9.767  0.2582E-01  0.1320E+00
     -9.665  0.1179E-01  0.1332E+00
     -9.564  0.8103E-02  0.1340E+00
     -9.463  0.1392E-01  0.1354E+00
     -9.361  0.2276E-01  0.1377E+00
     -9.260  0.2888E-01  0.1406E+00
     -9.158  0.3205E-01  0.1439E+00
     -9.057  0.3318E-01  0.1472E+00
     -8.956  0.3126E-01  0.1504E+00
     -8.854  0.2754E-01  0.1532E+00
     -8.753  0.2536E-01  0.1558E+00
     -8.651  0.2438E-01  0.1582E+00
     -8.550  0.2316E-01  0.1606E+00
     -8.449  0.2247E-01  0.1629E+00
     -8.347  0.1939E-01  0.1648E+00
     -8.246  0.1194E-01  0.1661E+00
     -8.144  0.4705E-02  0.1665E+00
     -8.043  0.1145E-02  0.1666E+00
     -7.942  0.1702E-03  0.1667E+00
     -7.840  0.1540E-04  0.1667E+00
     -7.739  0.8472E-06  0.1667E+00
     -7.637  0.2835E-07  0.1667E+00
     -7.536  0.6532E-08  0.1667E+00
     -7.435  0.2201E-06  0.1667E+00
     -7.333  0.4922E-05  0.1667E+00
     -7.232  0.6682E-04  0.1667E+00
     -7.130  0.5514E-03  0.1667E+00
     -7.029  0.2771E-02  0.1670E+00
     -6.927  0.8495E-02  0.1679E+00
     -6.826  0.1590E-01  0.1695E+00
     -6.725  0.1819E-01  0.1713E+00
     -6.623  0.1289E-01  0.1726E+00
     -6.522  0.6659E-02  0.1733E+00
     -6.420  0.6365E-02  0.1740E+00
     -6.319  0.1232E-01  0.1752E+00
     -6.218  0.1818E-01  0.1770E+00
     -6.116  0.1751E-01  0.1788E+00
     -6.015  0.1378E-01  0.1802E+00
     -5.913  0.1480E-01  0.1817E+00
     -5.812  0.1865E-01  0.1836E+00
     -5.711  0.1786E-01  0.1854E+00
     -5.609  0.1416E-01  0.1869E+00
     -5.508  0.1499E-01  0.1884E+00
     -5.406  0.1854E-01  0.1903E+00
     -5.305  0.1672E-01  0.1920E+00
     -5.204  0.9475E-02  0.1929E+00
     -5.102  0.3292E-02  0.1933E+00
     -5.001  0.6982E-03  0.1933E+00
     -4.899  0.9019E-04  0.1933E+00
     -4.798  0.7085E-05  0.1933E+00
     -4.697  0.3379E-06  0.1933E+00
     -4.595  0.9764E-08  0.1933E+00
     -4.494  0.1707E-09  0.1933E+00
     -4.392  0.1804E-11  0.1933E+00
     -4.291  0.1150E-13  0.1933E+00
     -4.190  0.4379E-16  0.1933E+00
     -4.088  0.0000E+00  0.1933E+00
     -3.987  0.0000E+00  0.1933E+00
     -3.885  0.0000E+00  0.1933E+00
     -3.784  0.0000E+00  0.1933E+00
     -3.682  0.0000E+00  0.1933E+00
     -3.581  0.0000E+00  0.1933E+00
     -3.480  0.0000E+00  0.1933E+00
     -3.378  0.0000E+00  0.1933E+00
     -3.277  0.0000E+00  0.1933E+00
     -3.175  0.0000E+00  0.1933E+00
     -3.074  0.0000E+00  0.1933E+00
     -2.973  0.0000E+00  0.1933E+00
     -2.871  0.0000E+00  0.1933E+00
     -2.770  0.0000E+00  0.1933E+00
     -2.668  0.0000E+00  0.1933E+00
     -2.567  0.0000E+00  0.1933E+00
     -2.466  0.0000E+00  0.1933E+00
     -2.364  0.0000E+00  0.1933E+00
     -2.263  0.5182E-15  0.1933E+00
     -2.161  0.1082E-12  0.1933E+00
     -2.060  0.1365E-10  0.1933E+00
     -1.959  0.1040E-08  0.1933E+00
     -1.857  0.4789E-07  0.1933E+00
     -1.756  0.1337E-05  0.1933E+00
     -1.654  0.2266E-04  0.1933E+00
     -1.553  0.2344E-03  0.1934E+00
     -1.452  0.1489E-02  0.1935E+00
     -1.350  0.5895E-02  0.1941E+00
     -1.249  0.1493E-01  0.1956E+00
     -1.147  0.2531E-01  0.1982E+00
     -1.046  0.3043E-01  0.2013E+00
     -0.944  0.2679E-01  0.2040E+00
     -0.843  0.1699E-01  0.2057E+00
     -0.742  0.8118E-02  0.2065E+00
     -0.640  0.6352E-02  0.2072E+00
     -0.539  0.1367E-01  0.2086E+00
     -0.437  0.2777E-01  0.2114E+00
     -0.336  0.4247E-01  0.2157E+00
     -0.235  0.5260E-01  0.2210E+00
     -0.133  0.6042E-01  0.2272E+00
     -0.032  0.7590E-01  0.2348E+00
      0.070  0.1011E+00  0.2451E+00
      0.171  0.1141E+00  0.2567E+00
      0.272  0.9250E-01  0.2661E+00
      0.374  0.4997E-01  0.2711E+00
      0.475  0.1741E-01  0.2729E+00
      0.577  0.3848E-02  0.2733E+00
      0.678  0.5337E-03  0.2733E+00
      0.779  0.4609E-04  0.2733E+00
      0.881  0.2464E-05  0.2733E+00
      0.982  0.8103E-07  0.2733E+00
      1.084  0.1633E-08  0.2733E+00
      1.185  0.2008E-10  0.2733E+00
      1.286  0.1502E-12  0.2733E+00
      1.388  0.6879E-15  0.2733E+00
      1.489  0.0000E+00  0.2733E+00
      1.591  0.0000E+00  0.2733E+00
      1.692  0.0000E+00  0.2733E+00
      1.793  0.0000E+00  0.2733E+00
      1.895  0.0000E+00  0.2733E+00
      1.996  0.0000E+00  0.2733E+00
      2.098  0.0000E+00  0.2733E+00
      2.199  0.0000E+00  0.2733E+00
