   22   22  300    1
  0.1227273E+04  0.3000000E-08  0.3000000E-08  0.3000000E-08  0.0000000E+00
  1.000000000000000E-004
  CAR 
 unknown system                          
     58      4     41
 
  0.2500000E+00  0.2500000E+00  0.2500000E+00  0.2500000E+00
    1      -26.222919   1.000000
    2      -25.505134   1.000000
    3      -23.456200   1.000000
    4      -22.648674   1.000000
    5      -19.592914   1.000000
    6      -18.275813   1.000000
    7      -17.358002   1.000000
    8      -16.154354   1.000000
    9      -14.730343   1.000000
   10      -13.956426   1.000000
   11      -13.278914   1.000000
   12      -12.547268   1.000000
   13      -11.560421   1.000000
   14      -11.350590   1.000000
   15      -10.887909   1.000000
   16      -10.776204   1.000000
   17      -10.361980   1.000000
   18      -10.109418   1.000000
   19       -9.998346   1.000000
   20       -9.913169   1.000000
   21       -9.384670   1.000000
   22       -9.167415   1.000000
   23       -8.985187   1.000000
   24       -8.719287   1.000000
   25       -8.434164   1.000000
   26       -6.798498   1.000000
   27       -6.237067   1.000000
   28       -5.826451   1.000000
   29       -5.420903   1.000000
   30       -1.176513   0.000000
   31       -0.998543   0.000000
   32       -0.436181   0.000000
   33       -0.294961   0.000000
   34       -0.205231   0.000000
   35       -0.058392   0.000000
   36        0.049924   0.000000
   37        0.106632   0.000000
   38        0.128707   0.000000
   39        0.142005   0.000000
   40        0.181832   0.000000
   41        0.199124   0.000000
 
 -0.2500000E+00  0.2500000E+00  0.2500000E+00  0.2500000E+00
    1      -26.222917   1.000000
    2      -25.505134   1.000000
    3      -23.456205   1.000000
    4      -22.648674   1.000000
    5      -19.592913   1.000000
    6      -18.275813   1.000000
    7      -17.358004   1.000000
    8      -16.154356   1.000000
    9      -14.730334   1.000000
   10      -13.956437   1.000000
   11      -13.278910   1.000000
   12      -12.547263   1.000000
   13      -11.560424   1.000000
   14      -11.350582   1.000000
   15      -10.887918   1.000000
   16      -10.776209   1.000000
   17      -10.361979   1.000000
   18      -10.109403   1.000000
   19       -9.998346   1.000000
   20       -9.913180   1.000000
   21       -9.384678   1.000000
   22       -9.167402   1.000000
   23       -8.985187   1.000000
   24       -8.719284   1.000000
   25       -8.434175   1.000000
   26       -6.798503   1.000000
   27       -6.237068   1.000000
   28       -5.826467   1.000000
   29       -5.420907   1.000000
   30       -1.176496   0.000000
   31       -0.998542   0.000000
   32       -0.436185   0.000000
   33       -0.294962   0.000000
   34       -0.205233   0.000000
   35       -0.058135   0.000000
   36        0.048092   0.000000
   37        0.105212   0.000000
   38        0.132858   0.000000
   39        0.143771   0.000000
   40        0.185939   0.000000
   41        0.197611   0.000000
 
  0.2500000E+00 -0.2500000E+00  0.2500000E+00  0.2500000E+00
    1      -26.222918   1.000000
    2      -25.505133   1.000000
    3      -23.456199   1.000000
    4      -22.648674   1.000000
    5      -19.592915   1.000000
    6      -18.275813   1.000000
    7      -17.358004   1.000000
    8      -16.154357   1.000000
    9      -14.730343   1.000000
   10      -13.956432   1.000000
   11      -13.278918   1.000000
   12      -12.547263   1.000000
   13      -11.560423   1.000000
   14      -11.350585   1.000000
   15      -10.887909   1.000000
   16      -10.776201   1.000000
   17      -10.361974   1.000000
   18      -10.109414   1.000000
   19       -9.998356   1.000000
   20       -9.913177   1.000000
   21       -9.384676   1.000000
   22       -9.167419   1.000000
   23       -8.985187   1.000000
   24       -8.719292   1.000000
   25       -8.434169   1.000000
   26       -6.798490   1.000000
   27       -6.237068   1.000000
   28       -5.826450   1.000000
   29       -5.420901   1.000000
   30       -1.176510   0.000000
   31       -0.998543   0.000000
   32       -0.436164   0.000000
   33       -0.294964   0.000000
   34       -0.205227   0.000000
   35       -0.057625   0.000000
   36        0.042915   0.000000
   37        0.115567   0.000000
   38        0.126991   0.000000
   39        0.146473   0.000000
   40        0.189853   0.000000
   41        0.197531   0.000000
 
 -0.2500000E+00 -0.2500000E+00  0.2500000E+00  0.2500000E+00
    1      -26.222915   1.000000
    2      -25.505136   1.000000
    3      -23.456200   1.000000
    4      -22.648673   1.000000
    5      -19.592916   1.000000
    6      -18.275813   1.000000
    7      -17.358005   1.000000
    8      -16.154355   1.000000
    9      -14.730344   1.000000
   10      -13.956421   1.000000
   11      -13.278925   1.000000
   12      -12.547265   1.000000
   13      -11.560423   1.000000
   14      -11.350580   1.000000
   15      -10.887914   1.000000
   16      -10.776199   1.000000
   17      -10.361979   1.000000
   18      -10.109409   1.000000
   19       -9.998347   1.000000
   20       -9.913164   1.000000
   21       -9.384678   1.000000
   22       -9.167417   1.000000
   23       -8.985178   1.000000
   24       -8.719287   1.000000
   25       -8.434177   1.000000
   26       -6.798502   1.000000
   27       -6.237060   1.000000
   28       -5.826452   1.000000
   29       -5.420892   1.000000
   30       -1.176502   0.000000
   31       -0.998544   0.000000
   32       -0.436188   0.000000
   33       -0.294964   0.000000
   34       -0.205238   0.000000
   35       -0.057605   0.000000
   36        0.042889   0.000000
   37        0.123867   0.000000
   38        0.132027   0.000000
   39        0.133857   0.000000
   40        0.178543   0.000000
   41        0.192957   0.000000
