 vasp.5.4.1 24Jun15 (build Jan 13 2020 12:58:22) complex                        
  
 executed on           IFC91_ompi date 2020.02.03  09:56:59
 running on   15 total cores
 each image running on    1 cores
 distrk:  each k-point on    1 cores,    1 groups
 distr:  one band on NCORES_PER_BAND=   1 cores,    1 groups


--------------------------------------------------------------------------------------------------------


 INCAR:
 POTCAR:    PAW_PBE H 15Jun2001                   
 POTCAR:    PAW_PBE C 08Apr2002                   
 POTCAR:    PAW_PBE N 08Apr2002                   
 POTCAR:    PAW_PBE O 08Apr2002                   
 POTCAR:    PAW_PBE H 15Jun2001                   
   VRHFIN =H: ultrasoft test                                                    
   LEXCH  = PE                                                                  
   EATOM  =    12.4884 eV,    0.9179 Ry                                         
                                                                                
   TITEL  = PAW_PBE H 15Jun2001                                                 
   LULTRA =        F    use ultrasoft PP ?                                      
   IUNSCR =        0    unscreen: 0-lin 1-nonlin 2-no                           
   RPACOR =    0.000    partial core radius                                     
   POMASS =    1.000; ZVAL   =    1.000    mass and valenz                      
   RCORE  =    1.100    outmost cutoff radius                                   
   RWIGS  =    0.700; RWIGS  =    0.370    wigner-seitz radius (au A)           
   ENMAX  =  250.000; ENMIN  =  200.000 eV                                      
   RCLOC  =    0.701    cutoff for local pot                                    
   LCOR   =        T    correct aug charges                                     
   LPAW   =        T    paw PP                                                  
   EAUG   =  400.000                                                            
   RMAX   =    1.123    core radius for proj-oper                               
   RAUG   =    1.200    factor for augmentation sphere                          
   RDEP   =    1.112    radius for radial grids                                 
   RDEPT  =    0.926    core radius for aug-charge                              
                                                                                
   Atomic configuration                                                         
    2 entries                                                                   
     n  l   j            E        occ.                                          
     1  0  0.50        -6.4927   1.0000                                         
     2  1  0.50        -3.4015   0.0000                                         
   Description                                                                  
     l       E           TYP  RCUT    TYP  RCUT                                 
     0     -6.4927494     23  1.100                                             
     0      6.8029130     23  1.100                                             
     1     -4.0817478     23  1.100                                             
  local pseudopotential read in
  atomic valenz-charges read in
  non local Contribution for L=           0  read in
    real space projection operators read in
  non local Contribution for L=           0  read in
    real space projection operators read in
  non local Contribution for L=           1  read in
    real space projection operators read in
    PAW grid and wavefunctions read in
 
   number of l-projection  operators is LMAX  =           3
   number of lm-projection operators is LMMAX =           5
 
 POTCAR:    PAW_PBE C 08Apr2002                   
   VRHFIN =C: s2p2                                                              
   LEXCH  = PE                                                                  
   EATOM  =   147.1560 eV,   10.8157 Ry                                         
                                                                                
   TITEL  = PAW_PBE C 08Apr2002                                                 
   LULTRA =        F    use ultrasoft PP ?                                      
   IUNSCR =        1    unscreen: 0-lin 1-nonlin 2-no                           
   RPACOR =    1.200    partial core radius                                     
   POMASS =   12.011; ZVAL   =    4.000    mass and valenz                      
   RCORE  =    1.500    outmost cutoff radius                                   
   RWIGS  =    1.630; RWIGS  =    0.863    wigner-seitz radius (au A)           
   ENMAX  =  400.000; ENMIN  =  300.000 eV                                      
   ICORE  =        2    local potential                                         
   LCOR   =        T    correct aug charges                                     
   LPAW   =        T    paw PP                                                  
   EAUG   =  644.873                                                            
   DEXC   =    0.000                                                            
   RMAX   =    1.529    core radius for proj-oper                               
   RAUG   =    1.300    factor for augmentation sphere                          
   RDEP   =    1.501    radius for radial grids                                 
   RDEPT  =    1.300    core radius for aug-charge                              
                                                                                
   Atomic configuration                                                         
    4 entries                                                                   
     n  l   j            E        occ.                                          
     1  0  0.50      -273.3789   2.0000                                         
     2  0  0.50       -13.7508   2.0000                                         
     2  1  0.50        -5.2854   2.0000                                         
     3  2  1.50        -5.4423   0.0000                                         
   Description                                                                  
     l       E           TYP  RCUT    TYP  RCUT                                 
     0    -13.7508458     23  1.200                                             
     0     -8.2022199     23  1.200                                             
     1     -5.2854383     23  1.500                                             
     1     34.0145650     23  1.500                                             
     2     -5.4423304      7  1.500                                             
  local pseudopotential read in
  partial core-charges read in
  partial kinetic energy density read in
  atomic valenz-charges read in
  non local Contribution for L=           0  read in
    real space projection operators read in
  non local Contribution for L=           0  read in
    real space projection operators read in
  non local Contribution for L=           1  read in
    real space projection operators read in
  non local Contribution for L=           1  read in
    real space projection operators read in
    PAW grid and wavefunctions read in
 
   number of l-projection  operators is LMAX  =           4
   number of lm-projection operators is LMMAX =           8
 
 POTCAR:    PAW_PBE N 08Apr2002                   
   VRHFIN =N: s2p3                                                              
   LEXCH  = PE                                                                  
   EATOM  =   264.5486 eV,   19.4438 Ry                                         
                                                                                
   TITEL  = PAW_PBE N 08Apr2002                                                 
   LULTRA =        F    use ultrasoft PP ?                                      
   IUNSCR =        1    unscreen: 0-lin 1-nonlin 2-no                           
   RPACOR =    1.200    partial core radius                                     
   POMASS =   14.001; ZVAL   =    5.000    mass and valenz                      
   RCORE  =    1.500    outmost cutoff radius                                   
   RWIGS  =    1.400; RWIGS  =    0.741    wigner-seitz radius (au A)           
   ENMAX  =  400.000; ENMIN  =  300.000 eV                                      
   ICORE  =        2    local potential                                         
   LCOR   =        T    correct aug charges                                     
   LPAW   =        T    paw PP                                                  
   EAUG   =  627.112                                                            
   DEXC   =    0.000                                                            
   RMAX   =    1.529    core radius for proj-oper                               
   RAUG   =    1.300    factor for augmentation sphere                          
   RDEP   =    1.514    radius for radial grids                                 
   RDEPT  =    1.338    core radius for aug-charge                              
                                                                                
   Atomic configuration                                                         
    4 entries                                                                   
     n  l   j            E        occ.                                          
     1  0  0.50      -384.7179   2.0000                                         
     2  0  0.50       -18.5828   2.0000                                         
     2  1  0.50        -7.0898   3.0000                                         
     3  2  1.50        -6.8029   0.0000                                         
   Description                                                                  
     l       E           TYP  RCUT    TYP  RCUT                                 
     0    -18.5828119     23  1.200                                             
     0    -13.5018863     23  1.200                                             
     1     -7.0897853     23  1.500                                             
     1      9.5240782     23  1.500                                             
     2     -6.8029130      7  1.500                                             
  local pseudopotential read in
  partial core-charges read in
  partial kinetic energy density read in
  atomic valenz-charges read in
  non local Contribution for L=           0  read in
    real space projection operators read in
  non local Contribution for L=           0  read in
    real space projection operators read in
  non local Contribution for L=           1  read in
    real space projection operators read in
  non local Contribution for L=           1  read in
    real space projection operators read in
    PAW grid and wavefunctions read in
 
   number of l-projection  operators is LMAX  =           4
   number of lm-projection operators is LMMAX =           8
 
 POTCAR:    PAW_PBE O 08Apr2002                   
   VRHFIN =O: s2p4                                                              
   LEXCH  = PE                                                                  
   EATOM  =   432.3788 eV,   31.7789 Ry                                         
                                                                                
   TITEL  = PAW_PBE O 08Apr2002                                                 
   LULTRA =        F    use ultrasoft PP ?                                      
   IUNSCR =        1    unscreen: 0-lin 1-nonlin 2-no                           
   RPACOR =    1.200    partial core radius                                     
   POMASS =   16.000; ZVAL   =    6.000    mass and valenz                      
   RCORE  =    1.520    outmost cutoff radius                                   
   RWIGS  =    1.550; RWIGS  =    0.820    wigner-seitz radius (au A)           
   ENMAX  =  400.000; ENMIN  =  300.000 eV                                      
   ICORE  =        2    local potential                                         
   LCOR   =        T    correct aug charges                                     
   LPAW   =        T    paw PP                                                  
   EAUG   =  605.392                                                            
   DEXC   =    0.000                                                            
   RMAX   =    1.553    core radius for proj-oper                               
   RAUG   =    1.300    factor for augmentation sphere                          
   RDEP   =    1.550    radius for radial grids                                 
   RDEPT  =    1.329    core radius for aug-charge                              
                                                                                
   Atomic configuration                                                         
    4 entries                                                                   
     n  l   j            E        occ.                                          
     1  0  0.50      -514.6923   2.0000                                         
     2  0  0.50       -23.9615   2.0000                                         
     2  1  0.50        -9.0305   4.0000                                         
     3  2  1.50        -9.5241   0.0000                                         
   Description                                                                  
     l       E           TYP  RCUT    TYP  RCUT                                 
     0    -23.9615318     23  1.200                                             
     0     -9.5240782     23  1.200                                             
     1     -9.0304911     23  1.520                                             
     1      8.1634956     23  1.520                                             
     2     -9.5240782      7  1.500                                             
  local pseudopotential read in
  partial core-charges read in
  partial kinetic energy density read in
  kinetic energy density of atom read in
  atomic valenz-charges read in
  non local Contribution for L=           0  read in
    real space projection operators read in
  non local Contribution for L=           0  read in
    real space projection operators read in
  non local Contribution for L=           1  read in
    real space projection operators read in
  non local Contribution for L=           1  read in
    real space projection operators read in
    PAW grid and wavefunctions read in
 
   number of l-projection  operators is LMAX  =           4
   number of lm-projection operators is LMMAX =           8
 
 Optimization of the real space projectors (new method)

 maximal supplied QI-value         = 34.20
 optimisation between [QCUT,QGAM] = [  9.92, 20.18] = [ 27.55,114.04] Ry 
 Optimized for a Real-space Cutoff    1.26 Angstroem

   l    n(q)    QCUT    max X(q) W(low)/X(q) W(high)/X(q)  e(spline) 
   0      8     9.919    19.460    0.50E-03    0.23E-03    0.29E-06
   0      8     9.919    12.209    0.48E-03    0.23E-03    0.28E-06
   1      7     9.919     4.655    0.17E-03    0.75E-03    0.30E-06
 Optimization of the real space projectors (new method)

 maximal supplied QI-value         = 25.13
 optimisation between [QCUT,QGAM] = [ 10.05, 20.36] = [ 28.30,116.06] Ry 
 Optimized for a Real-space Cutoff    1.30 Angstroem

   l    n(q)    QCUT    max X(q) W(low)/X(q) W(high)/X(q)  e(spline) 
   0      8    10.053   115.676    0.49E-03    0.72E-03    0.18E-06
   0      8    10.053    87.132    0.49E-03    0.71E-03    0.18E-06
   1      7    10.053     4.429    0.32E-03    0.31E-03    0.18E-06
   1      7    10.053     2.733    0.23E-03    0.19E-03    0.20E-06
 Optimization of the real space projectors (new method)

 maximal supplied QI-value         = 25.13
 optimisation between [QCUT,QGAM] = [ 10.05, 20.36] = [ 28.30,116.06] Ry 
 Optimized for a Real-space Cutoff    1.65 Angstroem

   l    n(q)    QCUT    max X(q) W(low)/X(q) W(high)/X(q)  e(spline) 
   0     10    10.053    79.467    0.76E-04    0.72E-04    0.56E-06
   0     10    10.053    66.151    0.76E-04    0.72E-04    0.55E-06
   1     10    10.053     8.350    0.25E-03    0.92E-03    0.41E-05
   1     10    10.053     5.531    0.27E-03    0.10E-02    0.45E-05
 Optimization of the real space projectors (new method)

 maximal supplied QI-value         = 24.76
 optimisation between [QCUT,QGAM] = [ 10.15, 20.30] = [ 28.85,115.39] Ry 
 Optimized for a Real-space Cutoff    1.38 Angstroem

   l    n(q)    QCUT    max X(q) W(low)/X(q) W(high)/X(q)  e(spline) 
   0      8    10.150    20.381    0.22E-03    0.32E-03    0.29E-06
   0      8    10.150    15.268    0.23E-03    0.35E-03    0.30E-06
   1      8    10.150     5.964    0.46E-03    0.53E-03    0.21E-06
   1      8    10.150     5.382    0.38E-03    0.45E-03    0.19E-06
  PAW_PBE H 15Jun2001                   :
 energy of atom  1       EATOM=  -12.4884
 kinetic energy error for atom=    0.0098 (will be added to EATOM!!)
  PAW_PBE C 08Apr2002                   :
 energy of atom  2       EATOM= -147.1560
 kinetic energy error for atom=    0.0288 (will be added to EATOM!!)
  PAW_PBE N 08Apr2002                   :
 energy of atom  3       EATOM= -264.5486
 kinetic energy error for atom=    0.0736 (will be added to EATOM!!)
  PAW_PBE O 08Apr2002                   :
 energy of atom  4       EATOM= -432.3788
 kinetic energy error for atom=    0.1156 (will be added to EATOM!!)
 
 
 POSCAR: H12 C6 N2 O2                            
  positions in direct lattice
  velocities in cartesian coordinates
 exchange correlation table for  LEXCH =        8
   RHO(1)=    0.500       N(1)  =     2000
   RHO(2)=  100.500       N(2)  =     4000

 VTST: version 3.2, (02/03/18)

 CHAIN: initializing optimizer
 
 OPT: Using FIRE optimizer
 OPT: FIRE, Init
 OPT: FIRE, MAXMOVE       0.20000
 OPT: FIRE, TIMESTEP      0.10000
 OPT: FIRE, FTIMEMAX      1.00000
 OPT: FIRE, FTIMEINC      1.10000
 OPT: FIRE, FTIMEDEC      0.50000
 OPT: FIRE, FALPHADEC     0.99000
 OPT: FIRE, FALPHA        0.10000
 OPT: FIRE, FNMIN         5
 
 CHAIN: Read ICHAIN            0
 CHAIN: Running the NEB
 NEB:          SPRING     -5.000000
 NEB:          LCLIMB      T
 NEB:     LTANGENTOLD      F
 NEB:           LDNEB      F
 NEB:        LDNEBORG      F
 NEB:        LNEBCELL      F
 NEB:          EFIRST      0.000000
 NEB:           ELAST      0.000000
 
 POSCAR: H12 C6 N2 O2                            
  positions in direct lattice
  No initial velocities read in
 
 POSCAR: H12 C6 N2 O2                            
  positions in direct lattice
  No initial velocities read in
 


--------------------------------------------------------------------------------------------------------


 ion  position               nearest neighbor table
   1  0.378  0.538  0.499-  13 1.10
   2  0.376  0.482  0.482-  13 1.10
   3  0.385  0.494  0.539-  13 1.10
   4  0.448  0.446  0.524-  19 1.02
   5  0.519  0.430  0.522-  15 1.10
   6  0.558  0.435  0.450-  16 1.10
   7  0.518  0.474  0.430-  16 1.10
   8  0.502  0.419  0.443-  16 1.10
   9  0.515  0.546  0.494-  20 1.03
  10  0.580  0.571  0.561-  18 1.10
  11  0.609  0.561  0.511-  18 1.10
  12  0.566  0.602  0.512-  18 1.10
  13  0.392  0.505  0.505-   1 1.10   2 1.10   3 1.10  14 1.52
  14  0.442  0.506  0.495-  21 1.24  19 1.36  13 1.52
  15  0.513  0.460  0.502-   5 1.10  19 1.48  16 1.54  17 1.56
  16  0.523  0.447  0.453-   7 1.10   6 1.10   8 1.10  15 1.54
  17  0.549  0.493  0.520-  22 1.24  20 1.35  15 1.56
  18  0.576  0.569  0.525-  12 1.10  11 1.10  10 1.10  20 1.45
  19  0.466  0.471  0.510-   4 1.02  14 1.36  15 1.48
  20  0.543  0.537  0.512-   9 1.03  17 1.35  18 1.45
  21  0.459  0.538  0.473-  14 1.24
  22  0.582  0.478  0.540-  17 1.24
 
  LATTYP: Found a simple cubic cell.
 ALAT       =    30.0000000000
  
  Lattice vectors:
  
 A1 = (  30.0000000000,   0.0000000000,   0.0000000000)
 A2 = (   0.0000000000,  30.0000000000,   0.0000000000)
 A3 = (   0.0000000000,   0.0000000000,  30.0000000000)


Analysis of symmetry for initial positions (statically):
=====================================================================
 Subroutine PRICEL returns:
 Original cell was already a primitive cell.
 

 Routine SETGRP: Setting up the symmetry group for a 
 simple cubic supercell.


 Subroutine GETGRP returns: Found  1 space group operations
 (whereof  1 operations were pure point group operations)
 out of a pool of 48 trial point group operations.


The static configuration has the point symmetry C_1 .


Analysis of symmetry for dynamics (positions and initial velocities):
=====================================================================
 Subroutine PRICEL returns:
 Original cell was already a primitive cell.
 

 Routine SETGRP: Setting up the symmetry group for a 
 simple cubic supercell.


 Subroutine GETGRP returns: Found  1 space group operations
 (whereof  1 operations were pure point group operations)
 out of a pool of 48 trial point group operations.


The dynamic configuration has the point symmetry C_1 .
 
 
 KPOINTS: Mo2C                                    

Automatic generation of k-mesh.
Space group operators:
 irot       det(A)        alpha          n_x          n_y          n_z        tau_x        tau_y        tau_z
    1     1.000000     0.000000     1.000000     0.000000     0.000000     0.000000     0.000000     0.000000
 
 Subroutine IBZKPT returns following result:
 ===========================================
 
 Found      4 irreducible k-points:
 
 Following reciprocal coordinates:
            Coordinates               Weight
  0.250000  0.250000  0.250000      2.000000
 -0.250000  0.250000  0.250000      2.000000
  0.250000 -0.250000  0.250000      2.000000
 -0.250000 -0.250000  0.250000      2.000000
 
 Following cartesian coordinates:
            Coordinates               Weight
  0.008333  0.008333  0.008333      2.000000
 -0.008333  0.008333  0.008333      2.000000
  0.008333 -0.008333  0.008333      2.000000
 -0.008333 -0.008333  0.008333      2.000000
 


--------------------------------------------------------------------------------------------------------




 Dimension of arrays:
   k-points           NKPTS =      4   k-points in BZ     NKDIM =      4   number of bands    NBANDS=     41
   number of dos      NEDOS =    301   number of ions     NIONS =     22
   non local maximal  LDIM  =      4   non local SUM 2l+1 LMDIM =      8
   total plane-waves  NPLWV = ******
   max r-space proj   IRMAX =   2395   max aug-charges    IRDMAX=   1821
   dimension x,y,z NGX =   150 NGY =  150 NGZ =  150
   dimension x,y,z NGXF=   300 NGYF=  300 NGZF=  300
   support grid    NGXF=   300 NGYF=  300 NGZF=  300
   ions per type =              12   6   2   2
 NGX,Y,Z   is equivalent  to a cutoff of   8.31,  8.31,  8.31 a.u.
 NGXF,Y,Z  is equivalent  to a cutoff of  16.62, 16.62, 16.62 a.u.


 I would recommend the setting:
   dimension x,y,z NGX =   147 NGY =  147 NGZ =  147
 SYSTEM =  unknown system                          
 POSCAR =  H12 C6 N2 O2                            

 Startparameter for this run:
   NWRITE =      2    write-flag & timer
   PREC   = normal    normal or accurate (medium, high low for compatibility)
   ISTART =      0    job   : 0-new  1-cont  2-samecut
   ICHARG =      2    charge: 1-file 2-atom 10-const
   ISPIN  =      1    spin polarized calculation?
   LNONCOLLINEAR =      F non collinear calculations
   LSORBIT =      F    spin-orbit coupling
   INIWAV =      1    electr: 0-lowe 1-rand  2-diag
   LASPH  =      F    aspherical Exc in radial PAW
   METAGGA=      F    non-selfconsistent MetaGGA calc.

 Electronic Relaxation 1
   ENCUT  =  400.0 eV  29.40 Ry    5.42 a.u.  48.92 48.92 48.92*2*pi/ulx,y,z
   ENINI  =  400.0     initial cutoff
   ENAUG  =  644.9 eV  augmentation charge cutoff
   NELM   =    500;   NELMIN=  6; NELMDL= -5     # of ELM steps 
   EDIFF  = 0.1E-03   stopping-criterion for ELM
   LREAL  =      T    real-space projection
   NLSPLINE    = F    spline interpolate recip. space projectors
   LCOMPAT=      F    compatible to vasp.4.4
   GGA_COMPAT  = T    GGA compatible to vasp.4.4-vasp.4.6
   LMAXPAW     = -100 max onsite density
   LMAXMIX     =    2 max onsite mixed and CHGCAR
   VOSKOWN=      0    Vosko Wilk Nusair interpolation
   ROPT   =   -0.00050  -0.00050  -0.00050  -0.00050
 Ionic relaxation
   EDIFFG = -.1E+00   stopping-criterion for IOM
   NSW    =    300    number of steps for IOM
   NBLOCK =      1;   KBLOCK =    300    inner block; outer block 
   IBRION =      3    ionic relax: 0-MD 1-quasi-New 2-CG
   NFREE  =      0    steps in history (QN), initial steepest desc. (CG)
   ISIF   =      2    stress and relaxation
   IWAVPR =     11    prediction:  0-non 1-charg 2-wave 3-comb
   ISYM   =      2    0-nonsym 1-usesym 2-fastsym
   LCORR  =      T    Harris-Foulkes like correction to forces

   POTIM  = 0.0000    time-step for ionic-motion
   TEIN   =    0.0    initial temperature
   TEBEG  =    0.0;   TEEND  =   0.0 temperature during run
   SMASS  =   2.00    Nose mass-parameter (am)
   estimated Nose-frequenzy (Omega)   =  0.24E+10 period in steps =  0.00 mass=   0.137E-25a.u.
   SCALEE = 1.0000    scale energy and forces
   NPACO  =    256;   APACO  = 16.0  distance and # of slots for P.C.
   PSTRESS=    0.0 pullay stress

  Mass of Ions in am
   POMASS =   1.00 12.01 14.00 16.00
  Ionic Valenz
   ZVAL   =   1.00  4.00  5.00  6.00
  Atomic Wigner-Seitz radii
   RWIGS  =  -1.00 -1.00 -1.00 -1.00
  virtual crystal weights 
   VCA    =   1.00  1.00  1.00  1.00
   NELECT =      58.0000    total number of electrons
   NUPDOWN=      -1.0000    fix difference up-down

 DOS related values:
   EMIN   =  10.00;   EMAX   =-10.00  energy-range for DOS
   EFERMI =   0.00
   ISMEAR =     0;   SIGMA  =   0.20  broadening in eV -4-tet -1-fermi 0-gaus

 Electronic relaxation 2 (details)
   IALGO  =     38    algorithm
   LDIAG  =      T    sub-space diagonalisation (order eigenvalues)
   LSUBROT=      F    optimize rotation matrix (better conditioning)
   TURBO    =      0    0=normal 1=particle mesh
   IRESTART =      0    0=no restart 2=restart with 2 vectors
   NREBOOT  =      0    no. of reboots
   NMIN     =      0    reboot dimension
   EREF     =   0.00    reference energy to select bands
   IMIX   =      4    mixing-type and parameters
     AMIX     =   0.40;   BMIX     =  1.00
     AMIX_MAG =   1.60;   BMIX_MAG =  1.00
     AMIN     =   0.10
     WC   =   100.;   INIMIX=   1;  MIXPRE=   1;  MAXMIX= -45

 Intra band minimization:
   WEIMIN = 0.0010     energy-eigenvalue tresh-hold
   EBREAK =  0.61E-06  absolut break condition
   DEPER  =   0.30     relativ break condition  

   TIME   =   0.40     timestep for ELM

  volume/ion in A,a.u.               =    1227.27      8282.05
  Fermi-wavevector in a.u.,A,eV,Ry     =   0.211234  0.399174  0.607087  0.044620
  Thomas-Fermi vector in A             =   0.980021
 
 Write flags
   LWAVE  =      F    write WAVECAR
   LCHARG =      F    write CHGCAR
   LVTOT  =      F    write LOCPOT, total local potential
   LVHAR  =      F    write LOCPOT, Hartree potential only
   LELF   =      F    write electronic localiz. function (ELF)
   LORBIT =      0    0 simple, 1 ext, 2 COOP (PROOUT)


 Dipole corrections
   LMONO  =      F    monopole corrections only (constant potential shift)
   LDIPOL =      F    correct potential (dipole corrections)
   IDIPOL =      0    1-x, 2-y, 3-z, 4-all directions 
   EPSILON=  1.0000000 bulk dielectric constant

 Exchange correlation treatment:
   GGA     =    PE    GGA type
   LEXCH   =     8    internal setting for exchange type
   VOSKOWN=      0    Vosko Wilk Nusair interpolation
   LHFCALC =     F    Hartree Fock is set to
   LHFONE  =     F    Hartree Fock one center treatment
   AEXX    =    0.0000 exact exchange contribution

 Linear response parameters
   LEPSILON=     F    determine dielectric tensor
   LRPA    =     F    only Hartree local field effects (RPA)
   LNABLA  =     F    use nabla operator in PAW spheres
   LVEL    =     F    velocity operator in full k-point grid
   LINTERFAST=   F  fast interpolation
   KINTER  =     0    interpolate to denser k-point grid
   CSHIFT  =0.1000    complex shift for real part using Kramers Kronig
   OMEGAMAX=  -1.0    maximum frequency
   DEG_THRESHOLD= 0.2000000E-02 threshold for treating states as degnerate
   RTIME   =    0.100 relaxation time in fs

 Orbital magnetization related:
   ORBITALMAG=     F  switch on orbital magnetization
   LCHIMAG   =     F  perturbation theory with respect to B field
   DQ        =  0.001000  dq finite difference perturbation B field



--------------------------------------------------------------------------------------------------------


 quickmin algorithm: (dynamic with friction)
 charge density and potential will be updated during run
 non-spin polarized calculation
 Variant of blocked Davidson
 Davidson routine will perform the subspace rotation
 perform sub-space diagonalisation
    after iterative eigenvector-optimisation
 modified Broyden-mixing scheme, WC =      100.0
 initial mixing is a Kerker type mixing with AMIX =  0.4000 and BMIX =      1.0000
 Hartree-type preconditioning will be used
 using additional bands           12
 real space projection scheme for non local part
 use partial core corrections
 calculate Harris-corrections to forces 
   (improved forces if not selfconsistent)
 use gradient corrections 
 use of overlap-Matrix (Vanderbilt PP)
 Gauss-broadening in eV      SIGMA  =   0.20


--------------------------------------------------------------------------------------------------------


  energy-cutoff  :      400.00
  volume of cell :    27000.00
      direct lattice vectors                 reciprocal lattice vectors
    30.000000000  0.000000000  0.000000000     0.033333333  0.000000000  0.000000000
     0.000000000 30.000000000  0.000000000     0.000000000  0.033333333  0.000000000
     0.000000000  0.000000000 30.000000000     0.000000000  0.000000000  0.033333333

  length of vectors
    30.000000000 30.000000000 30.000000000     0.033333333  0.033333333  0.033333333


 
 k-points in units of 2pi/SCALE and weight: Mo2C                                    
   0.00833333  0.00833333  0.00833333       0.250
  -0.00833333  0.00833333  0.00833333       0.250
   0.00833333 -0.00833333  0.00833333       0.250
  -0.00833333 -0.00833333  0.00833333       0.250
 
 k-points in reciprocal lattice and weights: Mo2C                                    
   0.25000000  0.25000000  0.25000000       0.250
  -0.25000000  0.25000000  0.25000000       0.250
   0.25000000 -0.25000000  0.25000000       0.250
  -0.25000000 -0.25000000  0.25000000       0.250
 
 position of ions in fractional coordinates (direct lattice) 
   0.37842649  0.53819550  0.49941057
   0.37553489  0.48168501  0.48170726
   0.38453620  0.49407532  0.53901047
   0.44777532  0.44562430  0.52352895
   0.51932593  0.42986767  0.52236090
   0.55809636  0.43536206  0.45035733
   0.51811590  0.47434487  0.42972536
   0.50177283  0.41865926  0.44281892
   0.51546796  0.54576723  0.49350216
   0.58008884  0.57112200  0.56123483
   0.60928497  0.56130171  0.51072130
   0.56591341  0.60226042  0.51240410
   0.39223660  0.50481526  0.50471399
   0.44191801  0.50609428  0.49452335
   0.51339613  0.45962462  0.50161883
   0.52327830  0.44655787  0.45303879
   0.54887690  0.49274184  0.52006162
   0.57634007  0.56946663  0.52471748
   0.46596404  0.47059191  0.50953118
   0.54323476  0.53665086  0.51158312
   0.45864514  0.53765837  0.47346868
   0.58177199  0.47753406  0.53995985
 
 position of ions in cartesian coordinates  (Angst):
  11.35279459 16.14586493 14.98231718
  11.26604675 14.45055028 14.45121775
  11.53608600 14.82225972 16.17031399
  13.43325965 13.36872905 15.70586845
  15.57977789 12.89603010 15.67082712
  16.74289077 13.06086175 13.51071979
  15.54347691 14.23034608 12.89176070
  15.05318501 12.55977774 13.28456761
  15.46403865 16.37301680 14.80506472
  17.40266520 17.13365991 16.83704497
  18.27854918 16.83905143 15.32163901
  16.97740227 18.06781264 15.37212302
  11.76709807 15.14445784 15.14141971
  13.25754033 15.18282834 14.83570061
  15.40188380 13.78873868 15.04856499
  15.69834909 13.39673605 13.59116368
  16.46630705 14.78225522 15.60184869
  17.29020200 17.08399879 15.74152442
  13.97892134 14.11775740 15.28593528
  16.29704286 16.09952594 15.34749367
  13.75935430 16.12975114 14.20406046
  17.45315961 14.32602190 16.19879550
 


--------------------------------------------------------------------------------------------------------


 k-point  1 :   0.2500 0.2500 0.2500  plane waves:  490454
 k-point  2 :  -0.2500 0.2500 0.2500  plane waves:  490454
 k-point  3 :   0.2500-0.2500 0.2500  plane waves:  490454
 k-point  4 :  -0.2500-0.2500 0.2500  plane waves:  490454

 maximum and minimum number of plane-waves per node :    490454   490454

 maximum number of plane-waves:    490454
 maximum index in each direction: 
   IXMAX=   49   IYMAX=   49   IZMAX=   48
   IXMIN=  -49   IYMIN=  -49   IZMIN=  -49

 WARNING: aliasing errors must be expected set NGX to 198 to avoid them
 WARNING: aliasing errors must be expected set NGY to 198 to avoid them
 WARNING: aliasing errors must be expected set NGZ to 196 to avoid them
 aliasing errors are usually negligible using standard VASP settings
 and one can safely disregard these warnings

 serial   3D FFT for wavefunctions
 parallel 3D FFT for charge:
    minimum data exchange during FFTs selected (reduces bandwidth)


 total amount of memory used by VASP on root node  4333717. kBytes
========================================================================

   base      :      30000. kBytes
   nonlr-proj:       2412. kBytes
   fftplans  :     924480. kBytes
   grid      :    2089440. kBytes
   one-center:         67. kBytes
   wavefun   :    1287318. kBytes
 
     INWAV:  cpu time    0.0000: real time    0.0004
 Broyden mixing: mesh for mixing (old mesh)
   NGX = 97   NGY = 97   NGZ = 97
  (NGX  =300   NGY  =300   NGZ  =300)
  gives a total of 912673 points

 initial charge density was supplied:
 charge density of overlapping atoms calculated
 number of electron      58.0000000 magnetization 
 keeping initial charge density in first step


--------------------------------------------------------------------------------------------------------


 Maximum index for non-local projection operator         2295
 Maximum index for augmentation-charges         1578 (set IRDMAX)


--------------------------------------------------------------------------------------------------------


 First call to EWALD:  gamma=   0.059
 Maximum number of real-space cells 3x 3x 3
 Maximum number of reciprocal cells 3x 3x 3

 FEWALD executed in parallel
    FEWALD:  cpu time    0.0050: real time    0.0051


----------------------------------------- Iteration    1(   1)  ---------------------------------------


    POTLOK:  cpu time   25.9411: real time   25.9201
    SETDIJ:  cpu time    0.0300: real time    0.0295
     EDDAV:  cpu time  304.0258: real time  303.7783
       DOS:  cpu time    0.0010: real time    0.0010
    --------------------------------------------
      LOOP:  cpu time  329.9998: real time  329.7411

 eigenvalue-minimisations  :   392
 total energy-change (2. order) : 0.6087705E+03  (-0.7958351E+03)
 number of electron      58.0000000 magnetization 
 augmentation part       58.0000000 magnetization 

 Free energy of the ion-electron system (eV)
  ---------------------------------------------------
  alpha Z        PSCENC =         0.51957394
  Ewald energy   TEWEN  =      6072.67062226
  -Hartree energ DENC   =     -7817.04598517
  -exchange      EXHF   =         0.00000000
  -V(xc)+E(xc)   XCENC  =       201.88428781
  PAW double counting   =      1779.70502452    -1789.20730229
  entropy T*S    EENTRO =        -0.81522437
  eigenvalues    EBANDS =      -264.92378357
  atomic energy  EATOM  =      2425.98333211
  Solvation  Ediel_sol  =         0.00000000
  ---------------------------------------------------
  free energy    TOTEN  =       608.77054524 eV

  energy without entropy =      609.58576961  energy(sigma->0) =      609.17815742


--------------------------------------------------------------------------------------------------------




----------------------------------------- Iteration    1(   2)  ---------------------------------------


     EDDAV:  cpu time  425.0294: real time  424.6828
       DOS:  cpu time    0.0000: real time    0.0008
    --------------------------------------------
      LOOP:  cpu time  425.0304: real time  424.6873

 eigenvalue-minimisations  :   582
 total energy-change (2. order) :-0.3392460E+03  (-0.3282938E+03)
 number of electron      58.0000000 magnetization 
 augmentation part       58.0000000 magnetization 

 Free energy of the ion-electron system (eV)
  ---------------------------------------------------
  alpha Z        PSCENC =         0.51957394
  Ewald energy   TEWEN  =      6072.67062226
  -Hartree energ DENC   =     -7817.04598517
  -exchange      EXHF   =         0.00000000
  -V(xc)+E(xc)   XCENC  =       201.88428781
  PAW double counting   =      1779.70502452    -1789.20730229
  entropy T*S    EENTRO =        -0.48424235
  eigenvalues    EBANDS =      -604.50079190
  atomic energy  EATOM  =      2425.98333211
  Solvation  Ediel_sol  =         0.00000000
  ---------------------------------------------------
  free energy    TOTEN  =       269.52451892 eV

  energy without entropy =      270.00876128  energy(sigma->0) =      269.76664010


--------------------------------------------------------------------------------------------------------




----------------------------------------- Iteration    1(   3)  ---------------------------------------


     EDDAV:  cpu time  370.6646: real time  370.3627
       DOS:  cpu time    0.0000: real time    0.0006
    --------------------------------------------
      LOOP:  cpu time  370.6666: real time  370.3668

 eigenvalue-minimisations  :   496
 total energy-change (2. order) :-0.3173269E+03  (-0.3091100E+03)
 number of electron      58.0000000 magnetization 
 augmentation part       58.0000000 magnetization 

 Free energy of the ion-electron system (eV)
  ---------------------------------------------------
  alpha Z        PSCENC =         0.51957394
  Ewald energy   TEWEN  =      6072.67062226
  -Hartree energ DENC   =     -7817.04598517
  -exchange      EXHF   =         0.00000000
  -V(xc)+E(xc)   XCENC  =       201.88428781
  PAW double counting   =      1779.70502452    -1789.20730229
  entropy T*S    EENTRO =        -0.00013373
  eigenvalues    EBANDS =      -922.31179912
  atomic energy  EATOM  =      2425.98333211
  Solvation  Ediel_sol  =         0.00000000
  ---------------------------------------------------
  free energy    TOTEN  =       -47.80237968 eV

  energy without entropy =      -47.80224595  energy(sigma->0) =      -47.80231282


--------------------------------------------------------------------------------------------------------




----------------------------------------- Iteration    1(   4)  ---------------------------------------


     EDDAV:  cpu time  306.7604: real time  306.5113
       DOS:  cpu time    0.0000: real time    0.0005
    --------------------------------------------
      LOOP:  cpu time  306.7624: real time  306.5154

 eigenvalue-minimisations  :   397
 total energy-change (2. order) :-0.8893015E+02  (-0.8876275E+02)
 number of electron      58.0000000 magnetization 
 augmentation part       58.0000000 magnetization 

 Free energy of the ion-electron system (eV)
  ---------------------------------------------------
  alpha Z        PSCENC =         0.51957394
  Ewald energy   TEWEN  =      6072.67062226
  -Hartree energ DENC   =     -7817.04598517
  -exchange      EXHF   =         0.00000000
  -V(xc)+E(xc)   XCENC  =       201.88428781
  PAW double counting   =      1779.70502452    -1789.20730229
  entropy T*S    EENTRO =         0.00000000
  eigenvalues    EBANDS =     -1011.24208394
  atomic energy  EATOM  =      2425.98333211
  Solvation  Ediel_sol  =         0.00000000
  ---------------------------------------------------
  free energy    TOTEN  =      -136.73253077 eV

  energy without entropy =     -136.73253077  energy(sigma->0) =     -136.73253077


--------------------------------------------------------------------------------------------------------




----------------------------------------- Iteration    1(   5)  ---------------------------------------


     EDDAV:  cpu time  350.4027: real time  350.1183
       DOS:  cpu time    0.0000: real time    0.0005
    CHARGE:  cpu time   20.5909: real time   20.5740
    MIXING:  cpu time    0.6629: real time    0.6627
    --------------------------------------------
      LOOP:  cpu time  371.6595: real time  371.3594

 eigenvalue-minimisations  :   464
 total energy-change (2. order) :-0.5048929E+01  (-0.5037718E+01)
 number of electron      57.9999938 magnetization 
 augmentation part        2.9669086 magnetization 

 Broyden mixing:
  rms(total) = 0.19508E+01    rms(broyden)= 0.19486E+01
  rms(prec ) = 0.20260E+01
  weight for this iteration     100.00

 Free energy of the ion-electron system (eV)
  ---------------------------------------------------
  alpha Z        PSCENC =         0.51957394
  Ewald energy   TEWEN  =      6072.67062226
  -Hartree energ DENC   =     -7817.04598517
  -exchange      EXHF   =         0.00000000
  -V(xc)+E(xc)   XCENC  =       201.88428781
  PAW double counting   =      1779.70502452    -1789.20730229
  entropy T*S    EENTRO =         0.00000000
  eigenvalues    EBANDS =     -1016.29101276
  atomic energy  EATOM  =      2425.98333211
  Solvation  Ediel_sol  =         0.00000000
  ---------------------------------------------------
  free energy    TOTEN  =      -141.78145959 eV

  energy without entropy =     -141.78145959  energy(sigma->0) =     -141.78145959


--------------------------------------------------------------------------------------------------------




----------------------------------------- Iteration    1(   6)  ---------------------------------------


    POTLOK:  cpu time   22.5266: real time   22.5077
    SETDIJ:  cpu time    0.0280: real time    0.0288
     EDDAV:  cpu time  299.3245: real time  299.0794
       DOS:  cpu time    0.0000: real time    0.0005
    CHARGE:  cpu time   17.5913: real time   17.5766
    MIXING:  cpu time    0.6619: real time    0.6625
    --------------------------------------------
      LOOP:  cpu time  340.1343: real time  339.8595

 eigenvalue-minimisations  :   423
 total energy-change (2. order) : 0.1012095E+02  (-0.2359022E+01)
 number of electron      57.9999936 magnetization 
 augmentation part        2.6251536 magnetization 

 Broyden mixing:
  rms(total) = 0.99323E+00    rms(broyden)= 0.99278E+00
  rms(prec ) = 0.10213E+01
  weight for this iteration     100.00

 eigenvalues of (default mixing * dielectric matrix)
  average eigenvalue GAMMA=   1.2750
  1.2750

 Free energy of the ion-electron system (eV)
  ---------------------------------------------------
  alpha Z        PSCENC =         0.51957394
  Ewald energy   TEWEN  =      6072.67062226
  -Hartree energ DENC   =     -7931.66622097
  -exchange      EXHF   =         0.00000000
  -V(xc)+E(xc)   XCENC  =       207.97201887
  PAW double counting   =      2769.74594741    -2780.59844056
  entropy T*S    EENTRO =         0.00000000
  eigenvalues    EBANDS =      -896.28734440
  atomic energy  EATOM  =      2425.98333211
  Solvation  Ediel_sol  =         0.00000000
  ---------------------------------------------------
  free energy    TOTEN  =      -131.66051135 eV

  energy without entropy =     -131.66051135  energy(sigma->0) =     -131.66051135


--------------------------------------------------------------------------------------------------------




----------------------------------------- Iteration    1(   7)  ---------------------------------------


    POTLOK:  cpu time   19.3571: real time   19.3407
    SETDIJ:  cpu time    0.0280: real time    0.0288
     EDDAV:  cpu time  320.3213: real time  320.0608
       DOS:  cpu time    0.0000: real time    0.0005
    CHARGE:  cpu time   20.8858: real time   20.8688
    MIXING:  cpu time    0.7379: real time    0.7371
    --------------------------------------------
      LOOP:  cpu time  361.3321: real time  361.0402

 eigenvalue-minimisations  :   423
 total energy-change (2. order) : 0.1729876E+01  (-0.4525981E+00)
 number of electron      57.9999937 magnetization 
 augmentation part        2.6134453 magnetization 

 Broyden mixing:
  rms(total) = 0.51514E+00    rms(broyden)= 0.51502E+00
  rms(prec ) = 0.52783E+00
  weight for this iteration     100.00

 eigenvalues of (default mixing * dielectric matrix)
  average eigenvalue GAMMA=   1.5675
  1.1055  2.0296

 Free energy of the ion-electron system (eV)
  ---------------------------------------------------
  alpha Z        PSCENC =         0.51957394
  Ewald energy   TEWEN  =      6072.67062226
  -Hartree energ DENC   =     -7993.11659279
  -exchange      EXHF   =         0.00000000
  -V(xc)+E(xc)   XCENC  =       210.98436299
  PAW double counting   =      3727.15290368    -3738.27059813
  entropy T*S    EENTRO =         0.00000000
  eigenvalues    EBANDS =      -835.85423926
  atomic energy  EATOM  =      2425.98333211
  Solvation  Ediel_sol  =         0.00000000
  ---------------------------------------------------
  free energy    TOTEN  =      -129.93063520 eV

  energy without entropy =     -129.93063520  energy(sigma->0) =     -129.93063520


--------------------------------------------------------------------------------------------------------




----------------------------------------- Iteration    1(   8)  ---------------------------------------


    POTLOK:  cpu time   22.9765: real time   22.9585
    SETDIJ:  cpu time    0.0290: real time    0.0290
     EDDAV:  cpu time  319.6194: real time  319.3575
       DOS:  cpu time    0.0000: real time    0.0005
    CHARGE:  cpu time   20.0670: real time   20.0503
    MIXING:  cpu time    0.7299: real time    0.7293
    --------------------------------------------
      LOOP:  cpu time  363.4228: real time  363.1291

 eigenvalue-minimisations  :   432
 total energy-change (2. order) : 0.4890684E+00  (-0.8537135E-01)
 number of electron      57.9999937 magnetization 
 augmentation part        2.5867236 magnetization 

 Broyden mixing:
  rms(total) = 0.15198E+00    rms(broyden)= 0.15192E+00
  rms(prec ) = 0.15977E+00
  weight for this iteration     100.00

 eigenvalues of (default mixing * dielectric matrix)
  average eigenvalue GAMMA=   1.5409
  2.3832  0.9542  1.2854

 Free energy of the ion-electron system (eV)
  ---------------------------------------------------
  alpha Z        PSCENC =         0.51957394
  Ewald energy   TEWEN  =      6072.67062226
  -Hartree energ DENC   =     -8033.49133776
  -exchange      EXHF   =         0.00000000
  -V(xc)+E(xc)   XCENC  =       213.09932707
  PAW double counting   =      4542.30788338    -4553.60548437
  entropy T*S    EENTRO =         0.00000000
  eigenvalues    EBANDS =      -796.92548339
  atomic energy  EATOM  =      2425.98333211
  Solvation  Ediel_sol  =         0.00000000
  ---------------------------------------------------
  free energy    TOTEN  =      -129.44156677 eV

  energy without entropy =     -129.44156677  energy(sigma->0) =     -129.44156677


--------------------------------------------------------------------------------------------------------




----------------------------------------- Iteration    1(   9)  ---------------------------------------


    POTLOK:  cpu time   20.7808: real time   20.7647
    SETDIJ:  cpu time    0.0290: real time    0.0289
     EDDAV:  cpu time  338.2976: real time  338.0207
       DOS:  cpu time    0.0000: real time    0.0005
    CHARGE:  cpu time   20.5039: real time   20.4876
    MIXING:  cpu time    0.8599: real time    0.8593
    --------------------------------------------
      LOOP:  cpu time  380.4732: real time  380.1655

 eigenvalue-minimisations  :   464
 total energy-change (2. order) : 0.6753452E-01  (-0.1027826E-01)
 number of electron      57.9999937 magnetization 
 augmentation part        2.5776528 magnetization 

 Broyden mixing:
  rms(total) = 0.57118E-01    rms(broyden)= 0.57090E-01
  rms(prec ) = 0.65767E-01
  weight for this iteration     100.00

 eigenvalues of (default mixing * dielectric matrix)
  average eigenvalue GAMMA=   1.5188
  2.2010  1.0503  1.0503  1.7737

 Free energy of the ion-electron system (eV)
  ---------------------------------------------------
  alpha Z        PSCENC =         0.51957394
  Ewald energy   TEWEN  =      6072.67062226
  -Hartree energ DENC   =     -8047.14648747
  -exchange      EXHF   =         0.00000000
  -V(xc)+E(xc)   XCENC  =       213.65713682
  PAW double counting   =      4773.10807842    -4784.37975347
  entropy T*S    EENTRO =         0.00000000
  eigenvalues    EBANDS =      -783.78653485
  atomic energy  EATOM  =      2425.98333211
  Solvation  Ediel_sol  =         0.00000000
  ---------------------------------------------------
  free energy    TOTEN  =      -129.37403224 eV

  energy without entropy =     -129.37403224  energy(sigma->0) =     -129.37403224


--------------------------------------------------------------------------------------------------------




----------------------------------------- Iteration    1(  10)  ---------------------------------------


    POTLOK:  cpu time   23.4014: real time   23.3829
    SETDIJ:  cpu time    0.0290: real time    0.0292
     EDDAV:  cpu time  322.9999: real time  322.7367
       DOS:  cpu time    0.0000: real time    0.0005
    CHARGE:  cpu time   18.7461: real time   18.7307
    MIXING:  cpu time    0.8459: real time    0.8452
    --------------------------------------------
      LOOP:  cpu time  366.0244: real time  365.7290

 eigenvalue-minimisations  :   440
 total energy-change (2. order) : 0.1153317E-01  (-0.2513143E-02)
 number of electron      57.9999937 magnetization 
 augmentation part        2.5842770 magnetization 

 Broyden mixing:
  rms(total) = 0.25712E-01    rms(broyden)= 0.25690E-01
  rms(prec ) = 0.35881E-01
  weight for this iteration     100.00

 eigenvalues of (default mixing * dielectric matrix)
  average eigenvalue GAMMA=   1.4892
  2.1694  2.1694  0.9712  0.9712  1.1648

 Free energy of the ion-electron system (eV)
  ---------------------------------------------------
  alpha Z        PSCENC =         0.51957394
  Ewald energy   TEWEN  =      6072.67062226
  -Hartree energ DENC   =     -8052.16010357
  -exchange      EXHF   =         0.00000000
  -V(xc)+E(xc)   XCENC  =       213.66809974
  PAW double counting   =      4766.59345448    -4777.81489141
  entropy T*S    EENTRO =         0.00000000
  eigenvalues    EBANDS =      -778.82258662
  atomic energy  EATOM  =      2425.98333211
  Solvation  Ediel_sol  =         0.00000000
  ---------------------------------------------------
  free energy    TOTEN  =      -129.36249908 eV

  energy without entropy =     -129.36249908  energy(sigma->0) =     -129.36249908


--------------------------------------------------------------------------------------------------------




----------------------------------------- Iteration    1(  11)  ---------------------------------------


    POTLOK:  cpu time   20.3619: real time   20.3451
    SETDIJ:  cpu time    0.0280: real time    0.0286
     EDDAV:  cpu time  317.7217: real time  317.4624
       DOS:  cpu time    0.0000: real time    0.0005
    CHARGE:  cpu time   20.7208: real time   20.7043
    MIXING:  cpu time    1.0398: real time    1.0389
    --------------------------------------------
      LOOP:  cpu time  359.8733: real time  359.5832

 eigenvalue-minimisations  :   432
 total energy-change (2. order) : 0.5409642E-02  (-0.8274488E-03)
 number of electron      57.9999937 magnetization 
 augmentation part        2.5799846 magnetization 

 Broyden mixing:
  rms(total) = 0.16189E-01    rms(broyden)= 0.16183E-01
  rms(prec ) = 0.25051E-01
  weight for this iteration     100.00

 eigenvalues of (default mixing * dielectric matrix)
  average eigenvalue GAMMA=   1.5446
  2.4696  2.4696  0.9461  0.9461  1.2182  1.2182

 Free energy of the ion-electron system (eV)
  ---------------------------------------------------
  alpha Z        PSCENC =         0.51957394
  Ewald energy   TEWEN  =      6072.67062226
  -Hartree energ DENC   =     -8058.01859398
  -exchange      EXHF   =         0.00000000
  -V(xc)+E(xc)   XCENC  =       213.77355482
  PAW double counting   =      4769.43972539    -4780.66098295
  entropy T*S    EENTRO =         0.00000000
  eigenvalues    EBANDS =      -773.06432102
  atomic energy  EATOM  =      2425.98333211
  Solvation  Ediel_sol  =         0.00000000
  ---------------------------------------------------
  free energy    TOTEN  =      -129.35708943 eV

  energy without entropy =     -129.35708943  energy(sigma->0) =     -129.35708943


--------------------------------------------------------------------------------------------------------




----------------------------------------- Iteration    1(  12)  ---------------------------------------


    POTLOK:  cpu time   23.4554: real time   23.4372
    SETDIJ:  cpu time    0.0300: real time    0.0297
     EDDAV:  cpu time  273.9594: real time  273.7360
       DOS:  cpu time    0.0010: real time    0.0005
    CHARGE:  cpu time   19.1651: real time   19.1499
    MIXING:  cpu time    1.0278: real time    1.0269
    --------------------------------------------
      LOOP:  cpu time  317.6407: real time  317.3843

 eigenvalue-minimisations  :   360
 total energy-change (2. order) :-0.7508805E-03  (-0.5753328E-03)
 number of electron      57.9999937 magnetization 
 augmentation part        2.5794505 magnetization 

 Broyden mixing:
  rms(total) = 0.99171E-02    rms(broyden)= 0.99129E-02
  rms(prec ) = 0.16138E-01
  weight for this iteration     100.00

 eigenvalues of (default mixing * dielectric matrix)
  average eigenvalue GAMMA=   1.5899
  2.7070  2.7070  1.3196  1.2317  1.2317  0.9663  0.9663

 Free energy of the ion-electron system (eV)
  ---------------------------------------------------
  alpha Z        PSCENC =         0.51957394
  Ewald energy   TEWEN  =      6072.67062226
  -Hartree energ DENC   =     -8064.62883672
  -exchange      EXHF   =         0.00000000
  -V(xc)+E(xc)   XCENC  =       213.85713659
  PAW double counting   =      4764.60865713    -4775.82031632
  entropy T*S    EENTRO =         0.00000000
  eigenvalues    EBANDS =      -766.54800930
  atomic energy  EATOM  =      2425.98333211
  Solvation  Ediel_sol  =         0.00000000
  ---------------------------------------------------
  free energy    TOTEN  =      -129.35784031 eV

  energy without entropy =     -129.35784031  energy(sigma->0) =     -129.35784031


--------------------------------------------------------------------------------------------------------




----------------------------------------- Iteration    1(  13)  ---------------------------------------


    POTLOK:  cpu time   22.3976: real time   22.3803
    SETDIJ:  cpu time    0.0290: real time    0.0286
     EDDAV:  cpu time  306.4854: real time  306.2349
       DOS:  cpu time    0.0000: real time    0.0005
    CHARGE:  cpu time   19.6320: real time   19.6163
    MIXING:  cpu time    1.2238: real time    1.2214
    --------------------------------------------
      LOOP:  cpu time  349.7688: real time  349.4864

 eigenvalue-minimisations  :   432
 total energy-change (2. order) :-0.6137975E-02  (-0.4199356E-03)
 number of electron      57.9999937 magnetization 
 augmentation part        2.5781434 magnetization 

 Broyden mixing:
  rms(total) = 0.59519E-02    rms(broyden)= 0.59467E-02
  rms(prec ) = 0.97853E-02
  weight for this iteration     100.00

 eigenvalues of (default mixing * dielectric matrix)
  average eigenvalue GAMMA=   1.7015
  4.0868  2.4912  1.6562  1.3624  0.9899  0.9899  0.9169  1.1188

 Free energy of the ion-electron system (eV)
  ---------------------------------------------------
  alpha Z        PSCENC =         0.51957394
  Ewald energy   TEWEN  =      6072.67062226
  -Hartree energ DENC   =     -8070.09476700
  -exchange      EXHF   =         0.00000000
  -V(xc)+E(xc)   XCENC  =       213.92079885
  PAW double counting   =      4759.05172835    -4770.26300933
  entropy T*S    EENTRO =         0.00000000
  eigenvalues    EBANDS =      -761.15225747
  atomic energy  EATOM  =      2425.98333211
  Solvation  Ediel_sol  =         0.00000000
  ---------------------------------------------------
  free energy    TOTEN  =      -129.36397829 eV

  energy without entropy =     -129.36397829  energy(sigma->0) =     -129.36397829


--------------------------------------------------------------------------------------------------------




----------------------------------------- Iteration    1(  14)  ---------------------------------------


    POTLOK:  cpu time   24.2073: real time   24.1877
    SETDIJ:  cpu time    0.0300: real time    0.0293
     EDDAV:  cpu time  312.8514: real time  312.5968
       DOS:  cpu time    0.0010: real time    0.0005
    CHARGE:  cpu time   18.8081: real time   18.7930
    MIXING:  cpu time    1.2208: real time    1.2208
    --------------------------------------------
      LOOP:  cpu time  357.1187: real time  356.8327

 eigenvalue-minimisations  :   424
 total energy-change (2. order) :-0.6760308E-02  (-0.1916943E-03)
 number of electron      57.9999937 magnetization 
 augmentation part        2.5774372 magnetization 

 Broyden mixing:
  rms(total) = 0.38763E-02    rms(broyden)= 0.38729E-02
  rms(prec ) = 0.59654E-02
  weight for this iteration     100.00

 eigenvalues of (default mixing * dielectric matrix)
  average eigenvalue GAMMA=   1.8251
  5.0909  2.4137  2.2119  1.3303  1.2220  1.2220  0.9902  0.9724  0.9724

 Free energy of the ion-electron system (eV)
  ---------------------------------------------------
  alpha Z        PSCENC =         0.51957394
  Ewald energy   TEWEN  =      6072.67062226
  -Hartree energ DENC   =     -8073.76889434
  -exchange      EXHF   =         0.00000000
  -V(xc)+E(xc)   XCENC  =       213.94729995
  PAW double counting   =      4753.35357121    -4764.56225271
  entropy T*S    EENTRO =         0.00000000
  eigenvalues    EBANDS =      -757.51399101
  atomic energy  EATOM  =      2425.98333211
  Solvation  Ediel_sol  =         0.00000000
  ---------------------------------------------------
  free energy    TOTEN  =      -129.37073860 eV

  energy without entropy =     -129.37073860  energy(sigma->0) =     -129.37073860


--------------------------------------------------------------------------------------------------------




----------------------------------------- Iteration    1(  15)  ---------------------------------------


    POTLOK:  cpu time   21.6657: real time   21.6481
    SETDIJ:  cpu time    0.0290: real time    0.0290
     EDDAV:  cpu time  304.9866: real time  304.7387
       DOS:  cpu time    0.0000: real time    0.0005
    CHARGE:  cpu time   19.5790: real time   19.5630
    MIXING:  cpu time    1.4148: real time    1.4133
    --------------------------------------------
      LOOP:  cpu time  347.6781: real time  347.3963

 eigenvalue-minimisations  :   430
 total energy-change (2. order) :-0.8036898E-02  (-0.8867665E-04)
 number of electron      57.9999937 magnetization 
 augmentation part        2.5772667 magnetization 

 Broyden mixing:
  rms(total) = 0.24587E-02    rms(broyden)= 0.24572E-02
  rms(prec ) = 0.36037E-02
  weight for this iteration     100.00

 eigenvalues of (default mixing * dielectric matrix)
  average eigenvalue GAMMA=   1.8995
  5.6156  2.7716  2.3360  1.7135  1.4678  1.0306  1.0306  0.9544  1.0372  1.0372

 Free energy of the ion-electron system (eV)
  ---------------------------------------------------
  alpha Z        PSCENC =         0.51957394
  Ewald energy   TEWEN  =      6072.67062226
  -Hartree energ DENC   =     -8075.54698950
  -exchange      EXHF   =         0.00000000
  -V(xc)+E(xc)   XCENC  =       213.94690873
  PAW double counting   =      4752.52917445    -4763.73615498
  entropy T*S    EENTRO =         0.00000000
  eigenvalues    EBANDS =      -755.74524250
  atomic energy  EATOM  =      2425.98333211
  Solvation  Ediel_sol  =         0.00000000
  ---------------------------------------------------
  free energy    TOTEN  =      -129.37877550 eV

  energy without entropy =     -129.37877550  energy(sigma->0) =     -129.37877550


--------------------------------------------------------------------------------------------------------




----------------------------------------- Iteration    1(  16)  ---------------------------------------


    POTLOK:  cpu time   22.2256: real time   22.2080
    SETDIJ:  cpu time    0.0290: real time    0.0293
     EDDAV:  cpu time  270.6749: real time  270.4532
       DOS:  cpu time    0.0000: real time    0.0005
    CHARGE:  cpu time   19.8240: real time   19.8074
    MIXING:  cpu time    1.3428: real time    1.3416
    --------------------------------------------
      LOOP:  cpu time  314.0972: real time  313.8440

 eigenvalue-minimisations  :   350
 total energy-change (2. order) :-0.6093428E-02  (-0.4790909E-04)
 number of electron      57.9999937 magnetization 
 augmentation part        2.5773020 magnetization 

 Broyden mixing:
  rms(total) = 0.13518E-02    rms(broyden)= 0.13512E-02
  rms(prec ) = 0.20288E-02
  weight for this iteration     100.00

 eigenvalues of (default mixing * dielectric matrix)
  average eigenvalue GAMMA=   1.9546
  6.3287  3.1917  2.3461  1.9464  1.3181  1.3181  1.0081  1.0081  1.0694  0.9832
  0.9832

 Free energy of the ion-electron system (eV)
  ---------------------------------------------------
  alpha Z        PSCENC =         0.51957394
  Ewald energy   TEWEN  =      6072.67062226
  -Hartree energ DENC   =     -8076.18442316
  -exchange      EXHF   =         0.00000000
  -V(xc)+E(xc)   XCENC  =       213.93710691
  PAW double counting   =      4752.51075957    -4763.71710886
  entropy T*S    EENTRO =         0.00000000
  eigenvalues    EBANDS =      -755.10473169
  atomic energy  EATOM  =      2425.98333211
  Solvation  Ediel_sol  =         0.00000000
  ---------------------------------------------------
  free energy    TOTEN  =      -129.38486892 eV

  energy without entropy =     -129.38486892  energy(sigma->0) =     -129.38486892


--------------------------------------------------------------------------------------------------------




----------------------------------------- Iteration    1(  17)  ---------------------------------------


    POTLOK:  cpu time   21.5627: real time   21.5464
    SETDIJ:  cpu time    0.0300: real time    0.0294
     EDDAV:  cpu time  249.6460: real time  249.4418
       DOS:  cpu time    0.0000: real time    0.0005
    CHARGE:  cpu time   18.6412: real time   18.6261
    MIXING:  cpu time    1.3018: real time    1.3002
    --------------------------------------------
      LOOP:  cpu time  291.1837: real time  290.9480

 eigenvalue-minimisations  :   336
 total energy-change (2. order) :-0.2711617E-02  (-0.1337547E-04)
 number of electron      57.9999937 magnetization 
 augmentation part        2.5772649 magnetization 

 Broyden mixing:
  rms(total) = 0.89778E-03    rms(broyden)= 0.89744E-03
  rms(prec ) = 0.13140E-02
  weight for this iteration     100.00

 eigenvalues of (default mixing * dielectric matrix)
  average eigenvalue GAMMA=   2.0353
  7.1166  3.6660  2.2843  2.2843  1.5078  1.5078  1.0483  1.0483  0.9514  0.9514
  1.0288  1.0288

 Free energy of the ion-electron system (eV)
  ---------------------------------------------------
  alpha Z        PSCENC =         0.51957394
  Ewald energy   TEWEN  =      6072.67062226
  -Hartree energ DENC   =     -8076.50854940
  -exchange      EXHF   =         0.00000000
  -V(xc)+E(xc)   XCENC  =       213.93319841
  PAW double counting   =      4752.69681895    -4763.90304862
  entropy T*S    EENTRO =         0.00000000
  eigenvalues    EBANDS =      -754.77952819
  atomic energy  EATOM  =      2425.98333211
  Solvation  Ediel_sol  =         0.00000000
  ---------------------------------------------------
  free energy    TOTEN  =      -129.38758054 eV

  energy without entropy =     -129.38758054  energy(sigma->0) =     -129.38758054


--------------------------------------------------------------------------------------------------------




----------------------------------------- Iteration    1(  18)  ---------------------------------------


    POTLOK:  cpu time   21.5237: real time   21.5065
    SETDIJ:  cpu time    0.0290: real time    0.0290
     EDDAV:  cpu time  219.1207: real time  218.9429
       DOS:  cpu time    0.0000: real time    0.0005
    CHARGE:  cpu time   19.7550: real time   19.7396
    MIXING:  cpu time    1.5128: real time    1.5104
    --------------------------------------------
      LOOP:  cpu time  261.9432: real time  261.7330

 eigenvalue-minimisations  :   252
 total energy-change (2. order) :-0.1819250E-02  (-0.1191649E-04)
 number of electron      57.9999937 magnetization 
 augmentation part        2.5772297 magnetization 

 Broyden mixing:
  rms(total) = 0.54700E-03    rms(broyden)= 0.54681E-03
  rms(prec ) = 0.78144E-03
  weight for this iteration     100.00

 eigenvalues of (default mixing * dielectric matrix)
  average eigenvalue GAMMA=   2.0828
  7.5430  4.1619  2.4946  2.2605  1.7747  1.4125  1.4125  1.0511  1.0511  0.9827
  0.9827  0.9745  0.9745

 Free energy of the ion-electron system (eV)
  ---------------------------------------------------
  alpha Z        PSCENC =         0.51957394
  Ewald energy   TEWEN  =      6072.67062226
  -Hartree energ DENC   =     -8076.68130094
  -exchange      EXHF   =         0.00000000
  -V(xc)+E(xc)   XCENC  =       213.93003200
  PAW double counting   =      4752.83525840    -4764.04142597
  entropy T*S    EENTRO =         0.00000000
  eigenvalues    EBANDS =      -754.60549158
  atomic energy  EATOM  =      2425.98333211
  Solvation  Ediel_sol  =         0.00000000
  ---------------------------------------------------
  free energy    TOTEN  =      -129.38939979 eV

  energy without entropy =     -129.38939979  energy(sigma->0) =     -129.38939979


--------------------------------------------------------------------------------------------------------




----------------------------------------- Iteration    1(  19)  ---------------------------------------


    POTLOK:  cpu time   22.6116: real time   22.5934
    SETDIJ:  cpu time    0.0300: real time    0.0293
     EDDAV:  cpu time  253.8254: real time  253.6190
       DOS:  cpu time    0.0000: real time    0.0005
    CHARGE:  cpu time   17.5033: real time   17.4885
    MIXING:  cpu time    1.4208: real time    1.4204
    --------------------------------------------
      LOOP:  cpu time  295.3921: real time  295.1553

 eigenvalue-minimisations  :   328
 total energy-change (2. order) :-0.9757229E-03  (-0.5819192E-05)
 number of electron      57.9999937 magnetization 
 augmentation part        2.5771772 magnetization 

 Broyden mixing:
  rms(total) = 0.33013E-03    rms(broyden)= 0.32988E-03
  rms(prec ) = 0.46130E-03
  weight for this iteration     100.00

 eigenvalues of (default mixing * dielectric matrix)
  average eigenvalue GAMMA=   2.1359
  8.1065  4.7308  2.6036  2.6036  1.6762  1.5553  1.5553  1.0645  1.0645  0.9216
  1.0265  1.0265  0.9838  0.9838

 Free energy of the ion-electron system (eV)
  ---------------------------------------------------
  alpha Z        PSCENC =         0.51957394
  Ewald energy   TEWEN  =      6072.67062226
  -Hartree energ DENC   =     -8076.77002645
  -exchange      EXHF   =         0.00000000
  -V(xc)+E(xc)   XCENC  =       213.92978684
  PAW double counting   =      4753.16154139    -4764.36787481
  entropy T*S    EENTRO =         0.00000000
  eigenvalues    EBANDS =      -754.51733078
  atomic energy  EATOM  =      2425.98333211
  Solvation  Ediel_sol  =         0.00000000
  ---------------------------------------------------
  free energy    TOTEN  =      -129.39037551 eV

  energy without entropy =     -129.39037551  energy(sigma->0) =     -129.39037551


--------------------------------------------------------------------------------------------------------




----------------------------------------- Iteration    1(  20)  ---------------------------------------


    POTLOK:  cpu time   19.8760: real time   19.8591
    SETDIJ:  cpu time    0.0280: real time    0.0287
     EDDAV:  cpu time  222.6681: real time  222.4855
       DOS:  cpu time    0.0000: real time    0.0005
    CHARGE:  cpu time   19.3611: real time   19.3455
    MIXING:  cpu time    1.6338: real time    1.6314
    --------------------------------------------
      LOOP:  cpu time  263.5679: real time  263.3547

 eigenvalue-minimisations  :   286
 total energy-change (2. order) :-0.4122865E-03  (-0.1764548E-05)
 number of electron      57.9999937 magnetization 
 augmentation part        2.5771875 magnetization 

 Broyden mixing:
  rms(total) = 0.19058E-03    rms(broyden)= 0.19052E-03
  rms(prec ) = 0.27434E-03
  weight for this iteration     100.00

 eigenvalues of (default mixing * dielectric matrix)
  average eigenvalue GAMMA=   2.1458
  8.3049  5.1890  2.8406  2.4927  1.8335  1.7192  1.3127  1.3127  1.0572  1.0572
  0.9935  1.0451  1.0451  0.9919  0.9919

 Free energy of the ion-electron system (eV)
  ---------------------------------------------------
  alpha Z        PSCENC =         0.51957394
  Ewald energy   TEWEN  =      6072.67062226
  -Hartree energ DENC   =     -8076.78613738
  -exchange      EXHF   =         0.00000000
  -V(xc)+E(xc)   XCENC  =       213.92840245
  PAW double counting   =      4752.85229215    -4764.05857023
  entropy T*S    EENTRO =         0.00000000
  eigenvalues    EBANDS =      -754.50030310
  atomic energy  EATOM  =      2425.98333211
  Solvation  Ediel_sol  =         0.00000000
  ---------------------------------------------------
  free energy    TOTEN  =      -129.39078780 eV

  energy without entropy =     -129.39078780  energy(sigma->0) =     -129.39078780


--------------------------------------------------------------------------------------------------------




----------------------------------------- Iteration    1(  21)  ---------------------------------------


    POTLOK:  cpu time   21.3068: real time   21.2898
    SETDIJ:  cpu time    0.0290: real time    0.0290
     EDDAV:  cpu time  273.4204: real time  273.1973
       DOS:  cpu time    0.0000: real time    0.0005
    CHARGE:  cpu time   19.6450: real time   19.6289
    MIXING:  cpu time    1.9407: real time    1.9388
    --------------------------------------------
      LOOP:  cpu time  316.3419: real time  316.0884

 eigenvalue-minimisations  :   360
 total energy-change (2. order) :-0.2164712E-03  (-0.7849625E-06)
 number of electron      57.9999937 magnetization 
 augmentation part        2.5771731 magnetization 

 Broyden mixing:
  rms(total) = 0.12237E-03    rms(broyden)= 0.12232E-03
  rms(prec ) = 0.17320E-03
  weight for this iteration     100.00

 eigenvalues of (default mixing * dielectric matrix)
  average eigenvalue GAMMA=   2.2291
  8.5313  5.8369  3.4229  2.6429  2.3590  1.6260  1.6260  1.4991  1.0851  1.0851
  1.0506  1.0506  0.9775  0.9775  0.9743  0.9208

 Free energy of the ion-electron system (eV)
  ---------------------------------------------------
  alpha Z        PSCENC =         0.51957394
  Ewald energy   TEWEN  =      6072.67062226
  -Hartree energ DENC   =     -8076.79471422
  -exchange      EXHF   =         0.00000000
  -V(xc)+E(xc)   XCENC  =       213.92813433
  PAW double counting   =      4752.91035155    -4764.11665408
  entropy T*S    EENTRO =         0.00000000
  eigenvalues    EBANDS =      -754.49165015
  atomic energy  EATOM  =      2425.98333211
  Solvation  Ediel_sol  =         0.00000000
  ---------------------------------------------------
  free energy    TOTEN  =      -129.39100427 eV

  energy without entropy =     -129.39100427  energy(sigma->0) =     -129.39100427


--------------------------------------------------------------------------------------------------------




----------------------------------------- Iteration    1(  22)  ---------------------------------------


    POTLOK:  cpu time   22.4406: real time   22.4223
    SETDIJ:  cpu time    0.0300: real time    0.0299
     EDDAV:  cpu time  193.9195: real time  193.7601
       DOS:  cpu time    0.0010: real time    0.0005
    CHARGE:  cpu time   16.9144: real time   16.9011
    MIXING:  cpu time    1.6328: real time    1.6315
    --------------------------------------------
      LOOP:  cpu time  234.9393: real time  234.7493

 eigenvalue-minimisations  :   246
 total energy-change (2. order) :-0.1501301E-03  (-0.3989508E-06)
 number of electron      57.9999937 magnetization 
 augmentation part        2.5771811 magnetization 

 Broyden mixing:
  rms(total) = 0.73291E-04    rms(broyden)= 0.73249E-04
  rms(prec ) = 0.95698E-04
  weight for this iteration     100.00

 eigenvalues of (default mixing * dielectric matrix)
  average eigenvalue GAMMA=   2.2152
  8.5923  6.1326  3.6299  2.4820  2.4820  1.7244  1.7244  1.3711  1.3711  1.0486
  1.0486  1.0989  1.0989  0.9791  0.9791  0.9719  0.9241

 Free energy of the ion-electron system (eV)
  ---------------------------------------------------
  alpha Z        PSCENC =         0.51957394
  Ewald energy   TEWEN  =      6072.67062226
  -Hartree energ DENC   =     -8076.80560113
  -exchange      EXHF   =         0.00000000
  -V(xc)+E(xc)   XCENC  =       213.92773221
  PAW double counting   =      4752.81033057    -4764.01662674
  entropy T*S    EENTRO =         0.00000000
  eigenvalues    EBANDS =      -754.48051762
  atomic energy  EATOM  =      2425.98333211
  Solvation  Ediel_sol  =         0.00000000
  ---------------------------------------------------
  free energy    TOTEN  =      -129.39115440 eV

  energy without entropy =     -129.39115440  energy(sigma->0) =     -129.39115440


--------------------------------------------------------------------------------------------------------




----------------------------------------- Iteration    1(  23)  ---------------------------------------


    POTLOK:  cpu time   19.2591: real time   19.2440
    SETDIJ:  cpu time    0.0290: real time    0.0284
     EDDAV:  cpu time  272.7455: real time  272.5231
       DOS:  cpu time    0.0000: real time    0.0005
    --------------------------------------------
      LOOP:  cpu time  292.0346: real time  291.7996

 eigenvalue-minimisations  :   368
 total energy-change (2. order) :-0.3916087E-04  (-0.1004055E-06)
 number of electron      57.9999937 magnetization 
 augmentation part        2.5771811 magnetization 

 Free energy of the ion-electron system (eV)
  ---------------------------------------------------
  alpha Z        PSCENC =         0.51957394
  Ewald energy   TEWEN  =      6072.67062226
  -Hartree energ DENC   =     -8076.81354136
  -exchange      EXHF   =         0.00000000
  -V(xc)+E(xc)   XCENC  =       213.92773397
  PAW double counting   =      4752.84089609    -4764.04718269
  entropy T*S    EENTRO =         0.00000000
  eigenvalues    EBANDS =      -754.47262788
  atomic energy  EATOM  =      2425.98333211
  Solvation  Ediel_sol  =         0.00000000
  ---------------------------------------------------
  free energy    TOTEN  =      -129.39119356 eV

  energy without entropy =     -129.39119356  energy(sigma->0) =     -129.39119356


--------------------------------------------------------------------------------------------------------




 average (electrostatic) potential at core
  the test charge radii are     0.5201  0.6991  0.7089  0.7215
  (the norm of the test charge is              1.0000)
       1 -42.3188       2 -42.5784       3 -42.5400       4 -44.7681       5 -42.3460
       6 -41.9146       7 -41.8441       8 -41.9886       9 -43.3105      10 -41.7163
      11 -41.7050      12 -42.0349      13 -59.0998      14 -61.5137      15 -60.0441
      16 -58.6605      17 -60.7753      18 -59.1265      19 -74.7691      20 -73.9029
      21 -80.0025      22 -79.2357
 
 
 
 E-fermi :  -4.4985     XC(G=0):  -0.1527     alpha+bet : -0.0465


 k-point     1 :       0.2500    0.2500    0.2500
  band No.  band energies     occupation 
      1     -26.2108      2.00000
      2     -25.4893      2.00000
      3     -23.4216      2.00000
      4     -22.6020      2.00000
      5     -19.5548      2.00000
      6     -18.2540      2.00000
      7     -17.3615      2.00000
      8     -16.1336      2.00000
      9     -14.7592      2.00000
     10     -13.8977      2.00000
     11     -13.2028      2.00000
     12     -12.4981      2.00000
     13     -11.5241      2.00000
     14     -11.3940      2.00000
     15     -10.8784      2.00000
     16     -10.7575      2.00000
     17     -10.3666      2.00000
     18     -10.0936      2.00000
     19      -9.9826      2.00000
     20      -9.9628      2.00000
     21      -9.3807      2.00000
     22      -9.1480      2.00000
     23      -8.9626      2.00000
     24      -8.7354      2.00000
     25      -8.4164      2.00000
     26      -6.7437      2.00000
     27      -6.2601      2.00000
     28      -5.8086      2.00000
     29      -5.4357      2.00000
     30      -1.1572      0.00000
     31      -1.0044      0.00000
     32      -0.4683      0.00000
     33      -0.2892      0.00000
     34      -0.2091      0.00000
     35      -0.0587      0.00000
     36       0.0265      0.00000
     37       0.0816      0.00000
     38       0.1062      0.00000
     39       0.1171      0.00000
     40       0.1566      0.00000
     41       0.1759      0.00000

 k-point     2 :      -0.2500    0.2500    0.2500
  band No.  band energies     occupation 
      1     -26.2107      2.00000
      2     -25.4893      2.00000
      3     -23.4216      2.00000
      4     -22.6020      2.00000
      5     -19.5548      2.00000
      6     -18.2540      2.00000
      7     -17.3615      2.00000
      8     -16.1336      2.00000
      9     -14.7592      2.00000
     10     -13.8977      2.00000
     11     -13.2028      2.00000
     12     -12.4981      2.00000
     13     -11.5241      2.00000
     14     -11.3940      2.00000
     15     -10.8784      2.00000
     16     -10.7575      2.00000
     17     -10.3666      2.00000
     18     -10.0936      2.00000
     19      -9.9826      2.00000
     20      -9.9629      2.00000
     21      -9.3808      2.00000
     22      -9.1480      2.00000
     23      -8.9626      2.00000
     24      -8.7354      2.00000
     25      -8.4164      2.00000
     26      -6.7437      2.00000
     27      -6.2601      2.00000
     28      -5.8086      2.00000
     29      -5.4357      2.00000
     30      -1.1572      0.00000
     31      -1.0044      0.00000
     32      -0.4683      0.00000
     33      -0.2892      0.00000
     34      -0.2091      0.00000
     35      -0.0582      0.00000
     36       0.0245      0.00000
     37       0.0795      0.00000
     38       0.1100      0.00000
     39       0.1190      0.00000
     40       0.1625      0.00000
     41       0.1739      0.00000

 k-point     3 :       0.2500   -0.2500    0.2500
  band No.  band energies     occupation 
      1     -26.2108      2.00000
      2     -25.4893      2.00000
      3     -23.4216      2.00000
      4     -22.6020      2.00000
      5     -19.5548      2.00000
      6     -18.2540      2.00000
      7     -17.3615      2.00000
      8     -16.1336      2.00000
      9     -14.7592      2.00000
[...]
 augmentation part        2.5814057 magnetization 

 Free energy of the ion-electron system (eV)
  ---------------------------------------------------
  alpha Z        PSCENC =         0.51957394
  Ewald energy   TEWEN  =      6119.80723191
  -Hartree energ DENC   =     -8123.30119994
  -exchange      EXHF   =         0.00000000
  -V(xc)+E(xc)   XCENC  =       214.09058165
  PAW double counting   =      4777.39352114    -4788.61201713
  entropy T*S    EENTRO =         0.00000000
  eigenvalues    EBANDS =      -755.31729924
  atomic energy  EATOM  =      2425.98333211
  Solvation  Ediel_sol  =         0.00000000
  ---------------------------------------------------
  free energy    TOTEN  =      -129.43627556 eV

  energy without entropy =     -129.43627556  energy(sigma->0) =     -129.43627556


--------------------------------------------------------------------------------------------------------




 average (electrostatic) potential at core
  the test charge radii are     0.5201  0.6991  0.7089  0.7215
  (the norm of the test charge is              1.0000)
       1 -42.3435       2 -42.5669       3 -42.5976       4 -44.8043       5 -42.3858
       6 -41.8973       7 -41.7802       8 -41.9328       9 -43.3934      10 -41.7387
      11 -41.7192      12 -42.0473      13 -59.1098      14 -61.5073      15 -59.9988
      16 -58.6009      17 -60.7493      18 -59.1326      19 -74.7870      20 -73.9237
      21 -79.9913      22 -79.2514
 
 
 
 E-fermi :  -4.4929     XC(G=0):  -0.1309     alpha+bet : -0.0465


 k-point     1 :       0.2500    0.2500    0.2500
  band No.  band energies     occupation 
      1     -26.2229      2.00000
      2     -25.5051      2.00000
      3     -23.4562      2.00000
      4     -22.6487      2.00000
      5     -19.5929      2.00000
      6     -18.2758      2.00000
      7     -17.3580      2.00000
      8     -16.1544      2.00000
      9     -14.7303      2.00000
     10     -13.9564      2.00000
     11     -13.2789      2.00000
     12     -12.5473      2.00000
     13     -11.5604      2.00000
     14     -11.3506      2.00000
     15     -10.8879      2.00000
     16     -10.7762      2.00000
     17     -10.3620      2.00000
     18     -10.1094      2.00000
     19      -9.9983      2.00000
     20      -9.9132      2.00000
     21      -9.3847      2.00000
     22      -9.1674      2.00000
     23      -8.9852      2.00000
     24      -8.7193      2.00000
     25      -8.4342      2.00000
     26      -6.7985      2.00000
     27      -6.2371      2.00000
     28      -5.8265      2.00000
     29      -5.4209      2.00000
     30      -1.1765      0.00000
     31      -0.9985      0.00000
     32      -0.4362      0.00000
     33      -0.2950      0.00000
     34      -0.2052      0.00000
     35      -0.0584      0.00000
     36       0.0499      0.00000
     37       0.1066      0.00000
     38       0.1287      0.00000
     39       0.1420      0.00000
     40       0.1818      0.00000
     41       0.1991      0.00000

 k-point     2 :      -0.2500    0.2500    0.2500
  band No.  band energies     occupation 
      1     -26.2229      2.00000
      2     -25.5051      2.00000
      3     -23.4562      2.00000
      4     -22.6487      2.00000
      5     -19.5929      2.00000
      6     -18.2758      2.00000
      7     -17.3580      2.00000
      8     -16.1544      2.00000
      9     -14.7303      2.00000
     10     -13.9564      2.00000
     11     -13.2789      2.00000
     12     -12.5473      2.00000
     13     -11.5604      2.00000
     14     -11.3506      2.00000
     15     -10.8879      2.00000
     16     -10.7762      2.00000
     17     -10.3620      2.00000
     18     -10.1094      2.00000
     19      -9.9983      2.00000
     20      -9.9132      2.00000
     21      -9.3847      2.00000
     22      -9.1674      2.00000
     23      -8.9852      2.00000
     24      -8.7193      2.00000
     25      -8.4342      2.00000
     26      -6.7985      2.00000
     27      -6.2371      2.00000
     28      -5.8265      2.00000
     29      -5.4209      2.00000
     30      -1.1765      0.00000
     31      -0.9985      0.00000
     32      -0.4362      0.00000
     33      -0.2950      0.00000
     34      -0.2052      0.00000
     35      -0.0581      0.00000
     36       0.0481      0.00000
     37       0.1052      0.00000
     38       0.1329      0.00000
     39       0.1438      0.00000
     40       0.1859      0.00000
     41       0.1976      0.00000

 k-point     3 :       0.2500   -0.2500    0.2500
  band No.  band energies     occupation 
      1     -26.2229      2.00000
      2     -25.5051      2.00000
      3     -23.4562      2.00000
      4     -22.6487      2.00000
      5     -19.5929      2.00000
      6     -18.2758      2.00000
      7     -17.3580      2.00000
      8     -16.1544      2.00000
      9     -14.7303      2.00000
     10     -13.9564      2.00000
     11     -13.2789      2.00000
     12     -12.5473      2.00000
     13     -11.5604      2.00000
     14     -11.3506      2.00000
     15     -10.8879      2.00000
     16     -10.7762      2.00000
     17     -10.3620      2.00000
     18     -10.1094      2.00000
     19      -9.9984      2.00000
     20      -9.9132      2.00000
     21      -9.3847      2.00000
     22      -9.1674      2.00000
     23      -8.9852      2.00000
     24      -8.7193      2.00000
     25      -8.4342      2.00000
     26      -6.7985      2.00000
     27      -6.2371      2.00000
     28      -5.8265      2.00000
     29      -5.4209      2.00000
     30      -1.1765      0.00000
     31      -0.9985      0.00000
     32      -0.4362      0.00000
     33      -0.2950      0.00000
     34      -0.2052      0.00000
     35      -0.0576      0.00000
     36       0.0429      0.00000
     37       0.1156      0.00000
     38       0.1270      0.00000
     39       0.1465      0.00000
     40       0.1899      0.00000
     41       0.1975      0.00000

 k-point     4 :      -0.2500   -0.2500    0.2500
  band No.  band energies     occupation 
      1     -26.2229      2.00000
      2     -25.5051      2.00000
      3     -23.4562      2.00000
      4     -22.6487      2.00000
      5     -19.5929      2.00000
      6     -18.2758      2.00000
      7     -17.3580      2.00000
      8     -16.1544      2.00000
      9     -14.7303      2.00000
     10     -13.9564      2.00000
     11     -13.2789      2.00000
     12     -12.5473      2.00000
     13     -11.5604      2.00000
     14     -11.3506      2.00000
     15     -10.8879      2.00000
     16     -10.7762      2.00000
     17     -10.3620      2.00000
     18     -10.1094      2.00000
     19      -9.9983      2.00000
     20      -9.9132      2.00000
     21      -9.3847      2.00000
     22      -9.1674      2.00000
     23      -8.9852      2.00000
     24      -8.7193      2.00000
     25      -8.4342      2.00000
     26      -6.7985      2.00000
     27      -6.2371      2.00000
     28      -5.8265      2.00000
     29      -5.4209      2.00000
     30      -1.1765      0.00000
     31      -0.9985      0.00000
     32      -0.4362      0.00000
     33      -0.2950      0.00000
     34      -0.2052      0.00000
     35      -0.0576      0.00000
     36       0.0429      0.00000
     37       0.1239      0.00000
     38       0.1320      0.00000
     39       0.1339      0.00000
     40       0.1785      0.00000
     41       0.1930      0.00000


--------------------------------------------------------------------------------------------------------


 soft charge-density along one line, spin component           1
         0         1         2         3         4         5         6         7         8         9
 total charge-density along one line
 
 pseudopotential strength for first ion, spin component:           1
 -2.353  -4.056   0.002   0.000  -0.001
 -4.056  -6.907   0.005  -0.001  -0.002
  0.002   0.005  -0.332   0.000  -0.002
  0.000  -0.001   0.000  -0.336   0.000
 -0.001  -0.002  -0.002   0.000  -0.335
 total augmentation occupancy for first ion, spin component:           1
  3.528  -0.635  -0.410   0.047   0.158
 -0.635   0.129   0.075  -0.009  -0.029
 -0.410   0.075   0.049  -0.004  -0.016
  0.047  -0.009  -0.004   0.009   0.002
  0.158  -0.029  -0.016   0.002   0.014


------------------------ aborting loop because EDIFF is reached ----------------------------------------


    CHARGE:  cpu time   16.8804: real time   16.8657
    FORLOC:  cpu time    5.7921: real time    5.7866
    FORNL :  cpu time   60.8338: real time   60.7843
    STRESS:  cpu time  183.2291: real time  183.0775
    FORCOR:  cpu time   23.6064: real time   23.5864
    FORHAR:  cpu time   10.4504: real time   10.4410
    MIXING:  cpu time    0.7609: real time    0.7602
    OFIELD:  cpu time    0.0000: real time    0.0000

  FORCE on cell =-STRESS in cart. coord.  units (eV):
  Direction    XX          YY          ZZ          XY          YZ          ZX
  --------------------------------------------------------------------------------------
  Alpha Z     0.51957     0.51957     0.51957
  Ewald    3141.76979  2088.24796   889.78811    37.40219  -115.06044   545.67948
  Hartree  3634.00644  2667.88440  1821.40909    38.71646    29.02843   442.02496
  E(xc)    -229.70676  -229.91894  -231.48207    -0.11655    -0.96164     0.55274
  Local   -7376.94269 -5351.80044 -3337.67772   -80.21849    54.03003  -976.97697
  n-local  -133.10130  -134.25936  -132.40072     0.61662     2.35857    -1.03598
  augment    14.55456    14.62934    14.23821    -0.01899     0.81396    -0.10181
  Kinetic   945.19226   941.11887   971.85909     3.58140    29.55311   -10.02421
  Fock        0.00000     0.00000     0.00000     0.00000     0.00000     0.00000
  -------------------------------------------------------------------------------------
  Total      -3.70813    -3.57861    -3.74642    -0.03736    -0.23797     0.11821
  in kB      -0.22004    -0.21235    -0.22231    -0.00222    -0.01412     0.00701
  external pressure =       -0.22 kB  Pullay stress =        0.00 kB


 VOLUME and BASIS-vectors are now :
 -----------------------------------------------------------------------------
  energy-cutoff  :      400.00
  volume of cell :    27000.00
      direct lattice vectors                 reciprocal lattice vectors
    30.000000000  0.000000000  0.000000000     0.033333333  0.000000000  0.000000000
     0.000000000 30.000000000  0.000000000     0.000000000  0.033333333  0.000000000
     0.000000000  0.000000000 30.000000000     0.000000000  0.000000000  0.033333333

  length of vectors
    30.000000000 30.000000000 30.000000000     0.033333333  0.033333333  0.033333333


 FORCES acting on ions
    electron-ion (+dipol)            ewald-force                    non-local-force                 convergence-correction
 -----------------------------------------------------------------------------------------------
   0.601E+02 -.624E+02 0.865E+00   -.621E+02 0.676E+02 -.146E+01   0.203E+01 -.525E+01 0.600E+00   0.285E-04 0.412E-04 0.738E-05
   0.668E+02 0.372E+02 0.399E+02   -.694E+02 -.404E+02 -.435E+02   0.266E+01 0.321E+01 0.356E+01   0.102E-04 0.415E-04 0.204E-04
   0.506E+02 0.177E+02 -.658E+02   -.518E+02 -.194E+02 0.709E+02   0.117E+01 0.176E+01 -.507E+01   0.187E-04 0.551E-04 0.587E-04
   0.574E+02 0.790E+02 -.645E+02   -.611E+02 -.838E+02 0.688E+02   0.373E+01 0.483E+01 -.428E+01   0.174E-04 0.686E-04 0.660E-04
   -.113E+02 0.945E+02 -.400E+02   0.124E+02 -.993E+02 0.429E+02   -.111E+01 0.486E+01 -.289E+01   0.448E-04 0.316E-04 0.865E-04
   -.699E+02 0.406E+02 0.414E+02   0.752E+02 -.421E+02 -.420E+02   -.530E+01 0.153E+01 0.675E+00   0.879E-04 0.692E-04 0.456E-05
   -.479E+01 -.284E+02 0.802E+02   0.385E+01 0.330E+02 -.833E+02   0.934E+00 -.461E+01 0.309E+01   0.232E-04 0.305E-04 0.526E-04
   0.274E+02 0.702E+02 0.523E+02   -.306E+02 -.742E+02 -.542E+02   0.317E+01 0.403E+01 0.196E+01   -.234E-05 0.579E-04 -.215E-04
   0.320E+02 -.633E+02 0.390E+02   -.377E+02 0.653E+02 -.430E+02   0.569E+01 -.192E+01 0.394E+01   0.538E-04 0.465E-04 0.554E-04
   -.235E+02 -.333E+02 -.778E+02   0.238E+02 0.334E+02 0.834E+02   -.338E+00 -.734E-01 -.557E+01   -.131E-04 -.208E-04 -.441E-04
   -.843E+02 -.189E+02 0.169E+02   0.894E+02 0.177E+02 -.187E+02   -.514E+01 0.121E+01 0.186E+01   -.140E-04 -.308E-04 0.491E-04
   -.367E+01 -.863E+02 0.130E+02   0.219E+01 0.915E+02 -.148E+02   0.148E+01 -.514E+01 0.182E+01   -.154E-04 -.331E-04 0.496E-04
   0.226E+03 -.107E+02 -.322E+02   -.227E+03 0.117E+02 0.323E+02   0.755E+00 -.973E+00 -.668E-01   0.192E-03 0.310E-03 -.310E-04
   0.186E+03 0.297E+01 -.209E+02   -.191E+03 -.248E+01 0.217E+02   0.492E+01 -.490E+00 -.837E+00   0.649E-05 0.130E-03 -.164E-03
   -.314E+02 0.168E+03 -.988E+01   0.369E+02 -.170E+03 0.917E+01   -.545E+01 0.146E+01 0.709E+00   0.100E-03 0.421E-03 0.109E-03
   -.570E+02 0.125E+03 0.198E+03   0.571E+02 -.125E+03 -.199E+03   -.125E+00 -.170E+00 0.118E+01   -.852E-04 0.655E-03 -.902E-04
   -.268E+02 0.377E+02 -.259E+02   0.240E+02 -.403E+02 0.246E+02   0.287E+01 0.255E+01 0.135E+01   0.214E-03 0.334E-03 0.233E-03
   -.140E+03 -.194E+03 -.581E+02   0.144E+03 0.197E+03 0.600E+02   -.388E+01 -.311E+01 -.189E+01   -.108E-03 -.128E-03 0.360E-03
   0.124E+03 0.176E+03 -.119E+03   -.121E+03 -.175E+03 0.119E+03   -.307E+01 -.322E+00 -.352E+00   0.262E-03 0.656E-03 0.597E-03
   -.321E+02 -.200E+03 0.108E+02   0.296E+02 0.203E+03 -.117E+02   0.245E+01 -.302E+01 0.862E+00   0.175E-03 0.276E-03 0.377E-03
   0.586E+02 -.317E+03 0.253E+03   -.411E+02 0.356E+03 -.283E+03   -.175E+02 -.384E+02 0.295E+02   0.225E-04 -.147E-02 -.185E-02
   -.354E+03 0.184E+03 -.235E+03   0.395E+03 -.204E+03 0.262E+03   -.410E+02 0.205E+02 -.266E+02   -.248E-03 0.277E-03 0.586E-03
 -----------------------------------------------------------------------------------------------
   0.511E+02 0.176E+02 -.355E+01   0.000E+00 -.568E-13 -.568E-13   -.511E+02 -.176E+02 0.355E+01   0.769E-03 0.182E-02 0.507E-03
 
 
 POSITION                                       TOTAL-FORCE (eV/Angst)
 -----------------------------------------------------------------------------------
     11.40688     16.15625     14.98001         0.006486      0.003747      0.007449
     11.27919     14.48698     14.37556        -0.000990      0.009327     -0.006566
     11.58869     14.77272     16.10498        -0.000049     -0.006176     -0.004043
     13.48479     13.45276     15.86602         0.004917      0.007348      0.015464
     15.57785     12.83080     15.57195         0.000869     -0.003566     -0.002392
     16.73450     13.20975     13.40962        -0.004225      0.003036     -0.004884
     15.50409     14.41401     12.93397        -0.004561      0.004941      0.001939
     15.04431     12.70254     13.15432        -0.004584      0.003949     -0.001673
     15.47048     16.32405     14.82044         0.002736     -0.003700     -0.005395
     17.30616     17.04595     16.94323        -0.001743     -0.002057      0.000813
     18.25845     16.79418     15.46636         0.000091      0.001793      0.000685
     16.94750     18.01628     15.48229        -0.002557     -0.001300      0.001303
     11.80223     15.14055     15.09076         0.002001      0.001445     -0.000359
     13.28566     15.15323     14.77646         0.001301     -0.002634     -0.001596
     15.40540     13.76503     15.02023         0.000660     -0.002936      0.000133
     15.68501     13.51241     13.53285        -0.003410      0.002518     -0.000721
     16.45970     14.72662     15.62455        -0.009948      0.005212     -0.005892
     17.25079     17.02611     15.84381        -0.001237     -0.000892      0.000376
     13.99700     14.10995     15.28531         0.001585      0.000462      0.003880
     16.28597     16.04505     15.38331         0.002962     -0.005333      0.000444
     13.79942     16.05481     14.08907         0.001550     -0.009200     -0.009036
     17.42596     14.26004     16.24489         0.008146     -0.005986      0.010070
 -----------------------------------------------------------------------------------
    total drift:                                0.010460     -0.011175      0.003470


--------------------------------------------------------------------------------------------------------



  FREE ENERGIE OF THE ION-ELECTRON SYSTEM (eV)
  ---------------------------------------------------
  free  energy   TOTEN  =      -129.43627556 eV

  energy  without entropy=     -129.43627556  energy(sigma->0) =     -129.43627556
 
 d Force = 0.1035867E-03[ 0.999E-04, 0.107E-03]  d Energy = 0.1043686E-03-0.782E-06
 d Force =-0.1567093E+00[-0.156E+00,-0.157E+00]  d Ewald  =-0.1567093E+00-0.113E-07


--------------------------------------------------------------------------------------------------------


    POTLOK:  cpu time   21.0338: real time   21.0166


--------------------------------------------------------------------------------------------------------


 NEB: the previous image is higher in energy: F
 NEB: the next image is higher in energy    : T
 NEB: only next energy greater

 NEB: Tangent
 ----------------------------------------------
     -0.01809     -0.04188     -0.03973
      0.02394     -0.02387     -0.09789
     -0.00490     -0.07518     -0.08603
     -0.00184     -0.09685     -0.22149
      0.01252     -0.04261     -0.22995
      0.07247      0.20313     -0.13174
      0.07337      0.23610     -0.03606
      0.08839      0.22149     -0.24073
      0.00098      0.01322      0.12935
     -0.16124     -0.15507      0.27590
     -0.03067     -0.08661      0.36089
     -0.00682     -0.06166      0.31464
      0.00040     -0.03693     -0.07020
      0.00589      0.00545     -0.03903
      0.01593      0.00941     -0.12771
      0.06554      0.17885     -0.13368
     -0.02288     -0.05308      0.01337
     -0.05675     -0.08746      0.27788
      0.00421     -0.03645     -0.13585
     -0.01739     -0.03787      0.12698
      0.01204      0.07436      0.07171
     -0.05500     -0.10653      0.01940

 NEB: forces: par spring, perp REAL, dneb     0.020974    0.038476    0.000000
 NEB: distance to prev, next image, angle between     1.268835    1.264640  169.211147
 NEB: projections on to tangent (spring, REAL)    -0.020974   -0.000346

 stress matrix after NEB project (eV)
     -3.70813     -0.03736      0.11821
     -0.03736     -3.57861     -0.23797
      0.11821     -0.23797     -3.74642
  FORCES: max atom, RMS     0.022654    0.009343
  FORCE total and by dimension    0.043822    0.020033
  Stress total and by dimension    6.382503    3.746423
 OPT: skip step - force has converged


--------------------------------------------------------------------------------------------------------


  
 reached required accuracy - stopping structural energy minimisation
     LOOP+:  cpu time 1818.9305: real time 1817.4603
    4ORBIT:  cpu time    0.0000: real time    0.0000

 total amount of memory used by VASP on root node  4333717. kBytes
========================================================================

   base      :      30000. kBytes
   nonlr-proj:       2412. kBytes
   fftplans  :     924480. kBytes
   grid      :    2089440. kBytes
   one-center:         67. kBytes
   wavefun   :    1287318. kBytes
 
  
  
 General timing and accounting informations for this job:
 ========================================================
  
                  Total CPU time used (sec):   226695.828
                            User time (sec):   225233.162
                          System time (sec):     1462.671
                         Elapsed time (sec):   226579.180
  
                   Maximum memory used (kb):     5900456.
                   Average memory used (kb):           0.
  
                          Minor page faults:    318306530
                          Major page faults:            8
                 Voluntary context switches:        13735
