 vasp.5.4.1 24Jun15 (build Jan 13 2020 12:58:22) complex                        
  
 POSCAR found type information on POSCAR  H  C  N  O 
 12/POSCAR found :  4 types and      22 ions
 scaLAPACK will be used
 LDA part: xc-table for Pade appr. of Perdew
 POSCAR found type information on POSCAR  H  C  N  O 
 00/POSCAR found :  4 types and      22 ions
 POSCAR found type information on POSCAR  H  C  N  O 
 16/POSCAR found :  4 types and      22 ions
 Jacobian:    50.2178792621697     
 POSCAR, INCAR and KPOINTS ok, starting setup
 WARNING: small aliasing (wrap around) errors must be expected
 FFT: planning ...
 WAVECAR not read
 entering main loop
       N       E                     dE             d eps       ncg     rms          rms(c)
DAV:   1     0.608770545240E+03    0.60877E+03   -0.79584E+03   392   0.485E+02
DAV:   2     0.269524518923E+03   -0.33925E+03   -0.32829E+03   582   0.918E+01
DAV:   3    -0.478023796847E+02   -0.31733E+03   -0.30911E+03   496   0.111E+02
DAV:   4    -0.136732530771E+03   -0.88930E+02   -0.88763E+02   397   0.811E+01
DAV:   5    -0.141781459590E+03   -0.50489E+01   -0.50377E+01   464   0.220E+01    0.195E+01
DAV:   6    -0.131660511347E+03    0.10121E+02   -0.23590E+01   423   0.200E+01    0.993E+00
DAV:   7    -0.129930635203E+03    0.17299E+01   -0.45260E+00   423   0.829E+00    0.515E+00
DAV:   8    -0.129441566767E+03    0.48907E+00   -0.85371E-01   432   0.403E+00    0.152E+00
DAV:   9    -0.129374032245E+03    0.67535E-01   -0.10278E-01   464   0.155E+00    0.571E-01
DAV:  10    -0.129362499076E+03    0.11533E-01   -0.25131E-02   440   0.817E-01    0.257E-01
DAV:  11    -0.129357089434E+03    0.54096E-02   -0.82745E-03   432   0.450E-01    0.162E-01
DAV:  12    -0.129357840314E+03   -0.75088E-03   -0.57533E-03   360   0.355E-01    0.992E-02
DAV:  13    -0.129363978289E+03   -0.61380E-02   -0.41994E-03   432   0.312E-01    0.595E-02
DAV:  14    -0.129370738597E+03   -0.67603E-02   -0.19169E-03   424   0.211E-01    0.388E-02
DAV:  15    -0.129378775495E+03   -0.80369E-02   -0.88677E-04   430   0.113E-01    0.246E-02
DAV:  16    -0.129384868923E+03   -0.60934E-02   -0.47909E-04   350   0.701E-02    0.135E-02
DAV:  17    -0.129387580540E+03   -0.27116E-02   -0.13375E-04   336   0.379E-02    0.898E-03
DAV:  18    -0.129389399789E+03   -0.18192E-02   -0.11916E-04   252   0.304E-02    0.547E-03
DAV:  19    -0.129390375512E+03   -0.97572E-03   -0.58192E-05   328   0.205E-02    0.330E-03
DAV:  20    -0.129390787799E+03   -0.41229E-03   -0.17645E-05   286   0.134E-02    0.191E-03
DAV:  21    -0.129391004270E+03   -0.21647E-03   -0.78496E-06   360   0.790E-03    0.122E-03
DAV:  22    -0.129391154400E+03   -0.15013E-03   -0.39895E-06   246   0.631E-03    0.733E-04
DAV:  23    -0.129391193561E+03   -0.39161E-04   -0.10041E-06   368   0.317E-03
   1 F= -.12939119E+03 E0= -.12939119E+03  d E =-.129391E+03
damped:  g(F)=  0.000E+00 g(S)=  0.000E+00 dE (1.order)= 0.000E+00
 bond charge predicted
       N       E                     dE             d eps       ncg     rms          rms(c)
DAV:   1    -0.129392230928E+03   -0.10765E-02   -0.50017E-02   334   0.115E+00    0.492E-02
DAV:   2    -0.129392295407E+03   -0.64479E-04   -0.91390E-04   464   0.145E-01    0.339E-02
DAV:   3    -0.129392293473E+03    0.19338E-05   -0.24205E-05   350   0.298E-02    0.185E-02
DAV:   4    -0.129392305189E+03   -0.11716E-04   -0.28259E-05   293   0.290E-02    0.316E-03
DAV:   5    -0.129392307185E+03   -0.19955E-05   -0.60746E-06   272   0.130E-02    0.239E-03
DAV:   6    -0.129392308777E+03   -0.15923E-05   -0.78976E-07   302   0.466E-03
   2 F= -.12939231E+03 E0= -.12939231E+03  d E =-.111522E-02
damped:  g(F)=  0.000E+00 g(S)=  0.000E+00 dE (1.order)= 0.000E+00
 bond charge predicted
       N       E                     dE             d eps       ncg     rms          rms(c)
DAV:   1    -0.129393065296E+03   -0.75811E-03   -0.13662E-01   331   0.189E+00    0.822E-02
DAV:   2    -0.129393207838E+03   -0.14254E-03   -0.22788E-03   397   0.226E-01    0.541E-02
DAV:   3    -0.129393204160E+03    0.36773E-05   -0.58420E-05   309   0.460E-02    0.279E-02
DAV:   4    -0.129393220919E+03   -0.16759E-04   -0.59604E-05   281   0.406E-02    0.484E-03
DAV:   5    -0.129393221448E+03   -0.52951E-06   -0.11696E-05   272   0.179E-02    0.347E-03
DAV:   6    -0.129393221741E+03   -0.29237E-06   -0.15017E-06   220   0.648E-03
   3 F= -.12939322E+03 E0= -.12939322E+03  d E =-.912964E-03
damped:  g(F)=  0.000E+00 g(S)=  0.000E+00 dE (1.order)= 0.000E+00
 bond charge predicted
       N       E                     dE             d eps       ncg     rms          rms(c)
DAV:   1    -0.129394502548E+03   -0.12811E-02   -0.22662E-01   328   0.242E+00    0.108E-01
DAV:   2    -0.129394729103E+03   -0.22655E-03   -0.36781E-03   380   0.283E-01    0.682E-02
DAV:   3    -0.129394744045E+03   -0.14943E-04   -0.11068E-04   340   0.579E-02    0.348E-02
DAV:   4    -0.129394773710E+03   -0.29665E-04   -0.82737E-05   291   0.451E-02    0.623E-03
DAV:   5    -0.129394774166E+03   -0.45553E-06   -0.15147E-05   264   0.202E-02    0.408E-03
DAV:   6    -0.129394774628E+03   -0.46260E-06   -0.20085E-06   238   0.725E-03
   4 F= -.12939477E+03 E0= -.12939477E+03  d E =-.155289E-02
damped:  g(F)=  0.000E+00 g(S)=  0.000E+00 dE (1.order)= 0.000E+00
 bond charge predicted
       N       E                     dE             d eps       ncg     rms          rms(c)
DAV:   1    -0.129396555758E+03   -0.17816E-02   -0.37043E-01   328   0.311E+00    0.140E-01
DAV:   2    -0.129396950250E+03   -0.39449E-03   -0.63116E-03   364   0.375E-01    0.883E-02
DAV:   3    -0.129396970559E+03   -0.20309E-04   -0.19985E-04   308   0.778E-02    0.456E-02
DAV:   4    -0.129397017973E+03   -0.47414E-04   -0.14372E-04   290   0.595E-02    0.831E-03
DAV:   5    -0.129397018455E+03   -0.48213E-06   -0.27388E-05   264   0.273E-02    0.523E-03
DAV:   6    -0.129397019185E+03   -0.72966E-06   -0.41499E-06   292   0.100E-02
   5 F= -.12939702E+03 E0= -.12939702E+03  d E =-.224456E-02
damped:  g(F)=  0.000E+00 g(S)=  0.000E+00 dE (1.order)= 0.000E+00
 bond charge predicted
       N       E                     dE             d eps       ncg     rms          rms(c)
DAV:   1    -0.129398407759E+03   -0.13893E-02   -0.51412E-01   330   0.365E+00    0.164E-01
DAV:   2    -0.129398925846E+03   -0.51809E-03   -0.84114E-03   364   0.433E-01    0.103E-01
DAV:   3    -0.129398958787E+03   -0.32941E-04   -0.27978E-04   364   0.902E-02    0.520E-02
DAV:   4    -0.129399021680E+03   -0.62893E-04   -0.15392E-04   300   0.630E-02    0.891E-03
DAV:   5    -0.129399022806E+03   -0.11259E-05   -0.29151E-05   237   0.281E-02    0.571E-03
DAV:   6    -0.129399024198E+03   -0.13922E-05   -0.43005E-06   300   0.104E-02
   6 F= -.12939902E+03 E0= -.12939902E+03  d E =-.200501E-02
damped:  g(F)=  0.000E+00 g(S)=  0.000E+00 dE (1.order)= 0.000E+00
 bond charge predicted
       N       E                     dE             d eps       ncg     rms          rms(c)
DAV:   1    -0.129400816545E+03   -0.17937E-02   -0.63846E-01   328   0.405E+00    0.181E-01
DAV:   2    -0.129401424117E+03   -0.60757E-03   -0.10005E-02   364   0.471E-01    0.115E-01
DAV:   3    -0.129401459962E+03   -0.35845E-04   -0.32513E-04   361   0.989E-02    0.573E-02
DAV:   4    -0.129401537691E+03   -0.77729E-04   -0.21015E-04   364   0.715E-02    0.108E-02
DAV:   5    -0.129401537571E+03    0.12093E-06   -0.29786E-05   303   0.279E-02    0.687E-03
DAV:   6    -0.129401539166E+03   -0.15954E-05   -0.44175E-06   294   0.104E-02
   7 F= -.12940154E+03 E0= -.12940154E+03  d E =-.251497E-02
damped:  g(F)=  0.000E+00 g(S)=  0.000E+00 dE (1.order)= 0.000E+00
 bond charge predicted
       N       E                     dE             d eps       ncg     rms          rms(c)
DAV:   1    -0.129403133552E+03   -0.15960E-02   -0.92260E-01   328   0.487E+00    0.220E-01
DAV:   2    -0.129403979989E+03   -0.84644E-03   -0.14224E-02   364   0.564E-01    0.140E-01
DAV:   3    -0.129404021164E+03   -0.41175E-04   -0.48382E-04   395   0.120E-01    0.688E-02
DAV:   4    -0.129404124230E+03   -0.10307E-03   -0.27780E-04   364   0.840E-02    0.126E-02
DAV:   5    -0.129404124364E+03   -0.13442E-06   -0.42003E-05   303   0.334E-02    0.816E-03
DAV:   6    -0.129404126222E+03   -0.18581E-05   -0.62478E-06   284   0.125E-02
   8 F= -.12940413E+03 E0= -.12940413E+03  d E =-.258706E-02
damped:  g(F)=  0.000E+00 g(S)=  0.000E+00 dE (1.order)= 0.000E+00
 bond charge predicted
       N       E                     dE             d eps       ncg     rms          rms(c)
DAV:   1    -0.129405740071E+03   -0.16157E-02   -0.11344E+00   328   0.542E+00    0.252E-01
DAV:   2    -0.129406822683E+03   -0.10826E-02   -0.18050E-02   364   0.637E-01    0.158E-01
DAV:   3    -0.129406884074E+03   -0.61392E-04   -0.63257E-04   396   0.136E-01    0.777E-02
DAV:   4    -0.129407021640E+03   -0.13757E-03   -0.32009E-04   364   0.881E-02    0.143E-02
DAV:   5    -0.129407021708E+03   -0.67913E-07   -0.49099E-05   269   0.362E-02    0.834E-03
DAV:   6    -0.129407024793E+03   -0.30849E-05   -0.73838E-06   304   0.139E-02
   9 F= -.12940702E+03 E0= -.12940702E+03  d E =-.289857E-02
damped:  g(F)=  0.000E+00 g(S)=  0.000E+00 dE (1.order)= 0.000E+00
 bond charge predicted
       N       E                     dE             d eps       ncg     rms          rms(c)
DAV:   1    -0.129408054786E+03   -0.10331E-02   -0.14926E+00   328   0.624E+00    0.288E-01
DAV:   2    -0.129409529013E+03   -0.14742E-02   -0.23836E-02   396   0.736E-01    0.185E-01
DAV:   3    -0.129409534986E+03   -0.59729E-05   -0.78182E-04   396   0.156E-01    0.872E-02
DAV:   4    -0.129409708122E+03   -0.17314E-03   -0.40030E-04   396   0.974E-02    0.156E-02
DAV:   5    -0.129409710267E+03   -0.21447E-05   -0.55236E-05   268   0.380E-02    0.923E-03
DAV:   6    -0.129409715291E+03   -0.50241E-05   -0.91913E-06   335   0.153E-02
  10 F= -.12940972E+03 E0= -.12940972E+03  d E =-.269050E-02
damped:  g(F)=  0.000E+00 g(S)=  0.000E+00 dE (1.order)= 0.000E+00
 bond charge predicted
       N       E                     dE             d eps       ncg     rms          rms(c)
DAV:   1    -0.129410579639E+03   -0.86937E-03   -0.19646E+00   328   0.712E+00    0.325E-01
DAV:   2    -0.129412506496E+03   -0.19269E-02   -0.30515E-02   396   0.834E-01    0.209E-01
DAV:   3    -0.129412460016E+03    0.46480E-04   -0.96034E-04   396   0.175E-01    0.986E-02
DAV:   4    -0.129412657607E+03   -0.19759E-03   -0.55661E-04   396   0.117E-01    0.182E-02
DAV:   5    -0.129412659329E+03   -0.17228E-05   -0.77645E-05   294   0.457E-02    0.111E-02
DAV:   6    -0.129412664058E+03   -0.47287E-05   -0.11795E-05   324   0.176E-02
  11 F= -.12941266E+03 E0= -.12941266E+03  d E =-.294877E-02
damped:  g(F)=  0.000E+00 g(S)=  0.000E+00 dE (1.order)= 0.000E+00
 bond charge predicted
       N       E                     dE             d eps       ncg     rms          rms(c)
DAV:   1    -0.129412557145E+03    0.10218E-03   -0.22391E+00   328   0.768E+00    0.363E-01
DAV:   2    -0.129415142737E+03   -0.25856E-02   -0.39818E-02   396   0.945E-01    0.233E-01
DAV:   3    -0.129415081432E+03    0.61305E-04   -0.13195E-03   396   0.202E-01    0.119E-01
DAV:   4    -0.129415349210E+03   -0.26778E-03   -0.69783E-04   396   0.130E-01    0.225E-02
DAV:   5    -0.129415352077E+03   -0.28666E-05   -0.10138E-04   268   0.527E-02    0.120E-02
DAV:   6    -0.129415358008E+03   -0.59312E-05   -0.15055E-05   336   0.205E-02
  12 F= -.12941536E+03 E0= -.12941536E+03  d E =-.269395E-02
damped:  g(F)=  0.000E+00 g(S)=  0.000E+00 dE (1.order)= 0.000E+00
 bond charge predicted
       N       E                     dE             d eps       ncg     rms          rms(c)
DAV:   1    -0.129412691079E+03    0.26610E-02   -0.34228E+00   328   0.953E+00    0.418E-01
DAV:   2    -0.129417132446E+03   -0.44414E-02   -0.62348E-02   396   0.118E+00    0.272E-01
DAV:   3    -0.129416863282E+03    0.26916E-03   -0.16492E-03   428   0.231E-01    0.139E-01
DAV:   4    -0.129417166686E+03   -0.30340E-03   -0.11301E-03   429   0.176E-01    0.248E-02
DAV:   5    -0.129417173850E+03   -0.71645E-05   -0.17378E-04   368   0.670E-02    0.174E-02
DAV:   6    -0.129417180096E+03   -0.62455E-05   -0.21170E-05   256   0.231E-02
  13 F= -.12941718E+03 E0= -.12941718E+03  d E =-.182209E-02
damped:  g(F)=  0.000E+00 g(S)=  0.000E+00 dE (1.order)= 0.000E+00
 bond charge predicted
       N       E                     dE             d eps       ncg     rms          rms(c)
DAV:   1    -0.129418612202E+03   -0.14384E-02   -0.78054E-02   335   0.152E+00    0.772E-02
DAV:   2    -0.129418839154E+03   -0.22695E-03   -0.29349E-03   441   0.253E-01    0.483E-02
DAV:   3    -0.129418821776E+03    0.17377E-04   -0.77472E-05   340   0.512E-02    0.294E-02
DAV:   4    -0.129418831854E+03   -0.10078E-04   -0.78092E-05   265   0.485E-02    0.660E-03
DAV:   5    -0.129418838386E+03   -0.65314E-05   -0.16969E-05   368   0.217E-02    0.378E-03
DAV:   6    -0.129418842042E+03   -0.36564E-05   -0.22062E-06   270   0.803E-03
  14 F= -.12941884E+03 E0= -.12941884E+03  d E =-.166195E-02
damped:  g(F)=  0.000E+00 g(S)=  0.000E+00 dE (1.order)= 0.000E+00
 bond charge predicted
       N       E                     dE             d eps       ncg     rms          rms(c)
DAV:   1    -0.129418218305E+03    0.62008E-03   -0.11186E-01   329   0.180E+00    0.865E-02
DAV:   2    -0.129418494355E+03   -0.27605E-03   -0.38611E-03   427   0.290E-01    0.548E-02
DAV:   3    -0.129418461769E+03    0.32586E-04   -0.10900E-04   341   0.596E-02    0.337E-02
DAV:   4    -0.129418460228E+03    0.15405E-05   -0.10681E-04   249   0.570E-02    0.778E-03
DAV:   5    -0.129418461907E+03   -0.16792E-05   -0.24068E-05   304   0.262E-02    0.468E-03
DAV:   6    -0.129418462607E+03   -0.69947E-06   -0.30935E-06   222   0.992E-03
  15 F= -.12941846E+03 E0= -.12941846E+03  d E =0.379435E-03
damped:  g(F)=  0.000E+00 g(S)=  0.000E+00 dE (1.order)= 0.000E+00
 bond charge predicted
       N       E                     dE             d eps       ncg     rms          rms(c)
DAV:   1    -0.129418776167E+03   -0.31426E-03   -0.26692E-03   372   0.281E-01    0.150E-02
DAV:   2    -0.129418785774E+03   -0.96062E-05   -0.10071E-04   384   0.475E-02    0.907E-03
DAV:   3    -0.129418787078E+03   -0.13043E-05   -0.49644E-06   216   0.120E-02    0.539E-03
DAV:   4    -0.129418790037E+03   -0.29590E-05   -0.30115E-06   292   0.911E-03    0.129E-03
DAV:   5    -0.129418791351E+03   -0.13138E-05   -0.64888E-07   272   0.425E-03    0.654E-04
DAV:   6    -0.129418792158E+03   -0.80705E-06   -0.12447E-07   232   0.183E-03
  16 F= -.12941879E+03 E0= -.12941879E+03  d E =-.329551E-03
damped:  g(F)=  0.000E+00 g(S)=  0.000E+00 dE (1.order)= 0.000E+00
 bond charge predicted
       N       E                     dE             d eps       ncg     rms          rms(c)
DAV:   1    -0.129419167187E+03   -0.37584E-03   -0.85815E-03   366   0.504E-01    0.267E-02
DAV:   2    -0.129419192605E+03   -0.25418E-04   -0.33494E-04   329   0.856E-02    0.164E-02
DAV:   3    -0.129419190300E+03    0.23058E-05   -0.11279E-05   245   0.197E-02    0.981E-03
DAV:   4    -0.129419189802E+03    0.49780E-06   -0.10130E-05   264   0.169E-02    0.242E-03
DAV:   5    -0.129419189973E+03   -0.17163E-06   -0.20417E-06   264   0.787E-03    0.129E-03
DAV:   6    -0.129419190172E+03   -0.19865E-06   -0.35887E-07   250   0.324E-03
  17 F= -.12941919E+03 E0= -.12941919E+03  d E =-.398014E-03
damped:  g(F)=  0.000E+00 g(S)=  0.000E+00 dE (1.order)= 0.000E+00
 bond charge predicted
       N       E                     dE             d eps       ncg     rms          rms(c)
DAV:   1    -0.129419365728E+03   -0.17575E-03   -0.12816E-02   376   0.615E-01    0.312E-02
DAV:   2    -0.129419401128E+03   -0.35400E-04   -0.48674E-04   420   0.102E-01    0.198E-02
DAV:   3    -0.129419395627E+03    0.55002E-05   -0.11590E-05   272   0.206E-02    0.120E-02
DAV:   4    -0.129419393172E+03    0.24558E-05   -0.14834E-05   232   0.206E-02    0.294E-03
DAV:   5    -0.129419393283E+03   -0.11134E-06   -0.30957E-06   272   0.989E-03    0.164E-03
DAV:   6    -0.129419393601E+03   -0.31847E-06   -0.51202E-07   220   0.397E-03
  18 F= -.12941939E+03 E0= -.12941939E+03  d E =-.203429E-03
damped:  g(F)=  0.000E+00 g(S)=  0.000E+00 dE (1.order)= 0.000E+00
 bond charge predicted
       N       E                     dE             d eps       ncg     rms          rms(c)
DAV:   1    -0.129419363779E+03    0.29504E-04   -0.11069E-02   383   0.566E-01    0.260E-02
DAV:   2    -0.129419389786E+03   -0.26008E-04   -0.35650E-04   365   0.890E-02    0.167E-02
DAV:   3    -0.129419387033E+03    0.27530E-05   -0.16985E-05   240   0.224E-02    0.101E-02
DAV:   4    -0.129419386230E+03    0.80318E-06   -0.10649E-05   250   0.178E-02    0.238E-03
DAV:   5    -0.129419386659E+03   -0.42844E-06   -0.24468E-06   224   0.849E-03    0.141E-03
DAV:   6    -0.129419387162E+03   -0.50316E-06   -0.47607E-07   232   0.368E-03
  19 F= -.12941939E+03 E0= -.12941939E+03  d E =0.643973E-05
damped:  g(F)=  0.000E+00 g(S)=  0.000E+00 dE (1.order)= 0.000E+00
 bond charge predicted
       N       E                     dE             d eps       ncg     rms          rms(c)
DAV:   1    -0.129419411797E+03   -0.25138E-04   -0.44645E-05   223   0.366E-02    0.176E-03
DAV:   2    -0.129419412647E+03   -0.85018E-06   -0.32211E-06   258   0.100E-02    0.115E-03
DAV:   3    -0.129419413165E+03   -0.51819E-06   -0.41197E-07   205   0.313E-03    0.842E-04
DAV:   4    -0.129419414105E+03   -0.93976E-06   -0.13417E-07   233   0.186E-03    0.276E-04
DAV:   5    -0.129419414694E+03   -0.58928E-06   -0.55511E-08   271   0.102E-03    0.168E-04
DAV:   6    -0.129419415173E+03   -0.47854E-06   -0.18116E-08   200   0.646E-04
  20 F= -.12941942E+03 E0= -.12941942E+03  d E =-.280113E-04
damped:  g(F)=  0.000E+00 g(S)=  0.000E+00 dE (1.order)= 0.000E+00
 bond charge predicted
       N       E                     dE             d eps       ncg     rms          rms(c)
DAV:   1    -0.129419458664E+03   -0.43970E-04   -0.17626E-04   311   0.718E-02    0.340E-03
DAV:   2    -0.129419459637E+03   -0.97264E-06   -0.87735E-06   249   0.156E-02    0.220E-03
DAV:   3    -0.129419459911E+03   -0.27382E-06   -0.89318E-07   247   0.506E-03    0.146E-03
DAV:   4    -0.129419460306E+03   -0.39565E-06   -0.24422E-07   217   0.280E-03    0.409E-04
DAV:   5    -0.129419460492E+03   -0.18582E-06   -0.50936E-08   272   0.135E-03    0.228E-04
DAV:   6    -0.129419460643E+03   -0.15064E-06    0.36540E-09   216   0.696E-04
  21 F= -.12941946E+03 E0= -.12941946E+03  d E =-.454698E-04
damped:  g(F)=  0.000E+00 g(S)=  0.000E+00 dE (1.order)= 0.000E+00
 bond charge predicted
       N       E                     dE             d eps       ncg     rms          rms(c)
DAV:   1    -0.129419515844E+03   -0.55351E-04   -0.36520E-04   352   0.103E-01    0.487E-03
DAV:   2    -0.129419516967E+03   -0.11232E-05   -0.15262E-05   226   0.192E-02    0.315E-03
DAV:   3    -0.129419517032E+03   -0.65378E-07   -0.16064E-06   256   0.659E-03    0.200E-03
DAV:   4    -0.129419517037E+03   -0.45147E-08   -0.44729E-07   235   0.368E-03    0.586E-04
DAV:   5    -0.129419517058E+03   -0.21173E-07   -0.99712E-08   264   0.184E-03    0.296E-04
DAV:   6    -0.129419517094E+03   -0.36613E-07   -0.79498E-09   184   0.913E-04
  22 F= -.12941952E+03 E0= -.12941952E+03  d E =-.564516E-04
damped:  g(F)=  0.000E+00 g(S)=  0.000E+00 dE (1.order)= 0.000E+00
 bond charge predicted
       N       E                     dE             d eps       ncg     rms          rms(c)
DAV:   1    -0.129419575962E+03   -0.58904E-04   -0.57434E-04   350   0.129E-01    0.682E-03
DAV:   2    -0.129419577237E+03   -0.12751E-05   -0.20460E-05   212   0.219E-02    0.402E-03
DAV:   3    -0.129419577169E+03    0.67484E-07   -0.22225E-06   247   0.768E-03    0.227E-03
DAV:   4    -0.129419577066E+03    0.10336E-06   -0.59397E-07   208   0.411E-03    0.721E-04
DAV:   5    -0.129419577059E+03    0.72760E-08   -0.13951E-07   181   0.211E-03    0.301E-04
DAV:   6    -0.129419577105E+03   -0.46766E-07   -0.13034E-08   192   0.104E-03
  23 F= -.12941958E+03 E0= -.12941958E+03  d E =-.600110E-04
damped:  g(F)=  0.000E+00 g(S)=  0.000E+00 dE (1.order)= 0.000E+00
 bond charge predicted
       N       E                     dE             d eps       ncg     rms          rms(c)
DAV:   1    -0.129419632288E+03   -0.55229E-04   -0.75462E-04   345   0.148E-01    0.757E-03
DAV:   2    -0.129419633907E+03   -0.16184E-05   -0.25845E-05   208   0.246E-02    0.452E-03
DAV:   3    -0.129419633839E+03    0.67593E-07   -0.28135E-06   209   0.865E-03    0.257E-03
DAV:   4    -0.129419633748E+03    0.90457E-07   -0.75996E-07   207   0.463E-03    0.815E-04
DAV:   5    -0.129419633764E+03   -0.15183E-07   -0.18580E-07   164   0.238E-03    0.341E-04
DAV:   6    -0.129419633835E+03   -0.71489E-07   -0.24070E-08   199   0.116E-03
  24 F= -.12941963E+03 E0= -.12941963E+03  d E =-.567298E-04
damped:  g(F)=  0.000E+00 g(S)=  0.000E+00 dE (1.order)= 0.000E+00
 bond charge predicted
       N       E                     dE             d eps       ncg     rms          rms(c)
DAV:   1    -0.129419681603E+03   -0.47840E-04   -0.87163E-04   338   0.159E-01    0.778E-03
DAV:   2    -0.129419683377E+03   -0.17741E-05   -0.27966E-05   209   0.257E-02    0.472E-03
DAV:   3    -0.129419683354E+03    0.23093E-07   -0.30516E-06   164   0.903E-03    0.270E-03
DAV:   4    -0.129419683323E+03    0.31343E-07   -0.82816E-07   200   0.485E-03    0.843E-04
DAV:   5    -0.129419683364E+03   -0.40741E-07   -0.20595E-07   164   0.248E-03    0.356E-04
DAV:   6    -0.129419683449E+03   -0.85290E-07   -0.30241E-08   200   0.121E-03
  25 F= -.12941968E+03 E0= -.12941968E+03  d E =-.496138E-04
damped:  g(F)=  0.000E+00 g(S)=  0.000E+00 dE (1.order)= 0.000E+00
 bond charge predicted
       N       E                     dE             d eps       ncg     rms          rms(c)
DAV:   1    -0.129419729109E+03   -0.45745E-04   -0.11269E-03   337   0.180E-01    0.827E-03
DAV:   2    -0.129419731192E+03   -0.20829E-05   -0.32493E-05   200   0.277E-02    0.510E-03
DAV:   3    -0.129419731245E+03   -0.53272E-07   -0.35431E-06   164   0.976E-03    0.294E-03
DAV:   4    -0.129419731300E+03   -0.54934E-07   -0.97048E-07   173   0.528E-03    0.884E-04
DAV:   5    -0.129419731363E+03   -0.62487E-07   -0.24804E-07   164   0.266E-03    0.383E-04
DAV:   6    -0.129419731451E+03   -0.88496E-07   -0.43689E-08   172   0.129E-03
  26 F= -.12941973E+03 E0= -.12941973E+03  d E =-.480022E-04
damped:  g(F)=  0.000E+00 g(S)=  0.000E+00 dE (1.order)= 0.000E+00
 bond charge predicted
       N       E                     dE             d eps       ncg     rms          rms(c)
DAV:   1    -0.129419781421E+03   -0.50059E-04   -0.13915E-03   336   0.198E-01    0.839E-03
DAV:   2    -0.129419783600E+03   -0.21784E-05   -0.34159E-05   200   0.284E-02    0.527E-03
DAV:   3    -0.129419783781E+03   -0.18131E-06   -0.36906E-06   164   0.998E-03    0.306E-03
DAV:   4    -0.129419783993E+03   -0.21170E-06   -0.10161E-06   164   0.545E-03    0.844E-04
DAV:   5    -0.129419784081E+03   -0.88638E-07   -0.26422E-07   164   0.268E-03    0.387E-04
DAV:   6    -0.129419784166E+03   -0.84688E-07   -0.51171E-08   189   0.128E-03
  27 F= -.12941978E+03 E0= -.12941978E+03  d E =-.527148E-04
damped:  g(F)=  0.000E+00 g(S)=  0.000E+00 dE (1.order)= 0.000E+00
 bond charge predicted
       N       E                     dE             d eps       ncg     rms          rms(c)
DAV:   1    -0.129419851352E+03   -0.67271E-04   -0.17621E-03   346   0.219E-01    0.871E-03
DAV:   2    -0.129419853650E+03   -0.22977E-05   -0.35852E-05   201   0.290E-02    0.550E-03
DAV:   3    -0.129419853964E+03   -0.31457E-06   -0.37867E-06   164   0.101E-02    0.318E-03
DAV:   4    -0.129419854371E+03   -0.40658E-06   -0.10383E-06   200   0.550E-03    0.751E-04
DAV:   5    -0.129419854482E+03   -0.11068E-06   -0.28228E-07   164   0.264E-03    0.378E-04
DAV:   6    -0.129419854553E+03   -0.71521E-07   -0.63427E-08   218   0.122E-03
  28 F= -.12941985E+03 E0= -.12941985E+03  d E =-.703873E-04
damped:  g(F)=  0.000E+00 g(S)=  0.000E+00 dE (1.order)= 0.000E+00
 bond charge predicted
       N       E                     dE             d eps       ncg     rms          rms(c)
DAV:   1    -0.129419952711E+03   -0.98229E-04   -0.24664E-03   330   0.257E-01    0.101E-02
DAV:   2    -0.129419955609E+03   -0.28985E-05   -0.45339E-05   245   0.323E-02    0.636E-03
DAV:   3    -0.129419956057E+03   -0.44796E-06   -0.46365E-06   231   0.110E-02    0.360E-03
DAV:   4    -0.129419956604E+03   -0.54624E-06   -0.13075E-06   262   0.602E-03    0.773E-04
DAV:   5    -0.129419956693E+03   -0.89876E-07   -0.37016E-07   204   0.289E-03    0.405E-04
DAV:   6    -0.129419956736E+03   -0.42370E-07   -0.95363E-08   165   0.130E-03
  29 F= -.12941996E+03 E0= -.12941996E+03  d E =-.102183E-03
damped:  g(F)=  0.000E+00 g(S)=  0.000E+00 dE (1.order)= 0.000E+00
 bond charge predicted
       N       E                     dE             d eps       ncg     rms          rms(c)
DAV:   1    -0.129420090648E+03   -0.13395E-03   -0.38202E-03   345   0.320E-01    0.126E-02
DAV:   2    -0.129420095534E+03   -0.48861E-05   -0.75529E-05   267   0.407E-02    0.825E-03
DAV:   3    -0.129420095730E+03   -0.19583E-06   -0.53078E-06   272   0.111E-02    0.490E-03
DAV:   4    -0.129420096297E+03   -0.56714E-06   -0.24112E-06   243   0.798E-03    0.110E-03
DAV:   5    -0.129420096344E+03   -0.47197E-07   -0.64834E-07   238   0.391E-03    0.615E-04
DAV:   6    -0.129420096400E+03   -0.55941E-07   -0.17027E-07   174   0.172E-03
  30 F= -.12942010E+03 E0= -.12942010E+03  d E =-.139664E-03
damped:  g(F)=  0.000E+00 g(S)=  0.000E+00 dE (1.order)= 0.000E+00
 bond charge predicted
       N       E                     dE             d eps       ncg     rms          rms(c)
DAV:   1    -0.129420256946E+03   -0.16060E-03   -0.60953E-03   352   0.405E-01    0.161E-02
DAV:   2    -0.129420265419E+03   -0.84738E-05   -0.12715E-04   233   0.527E-02    0.107E-02
DAV:   3    -0.129420265419E+03    0.27467E-09   -0.86924E-06   272   0.142E-02    0.636E-03
DAV:   4    -0.129420266007E+03   -0.58751E-06   -0.42679E-06   208   0.105E-02    0.147E-03
DAV:   5    -0.129420266070E+03   -0.62917E-07   -0.11084E-06   264   0.514E-03    0.823E-04
DAV:   6    -0.129420266169E+03   -0.99286E-07   -0.30866E-07   200   0.234E-03
  31 F= -.12942027E+03 E0= -.12942027E+03  d E =-.169769E-03
damped:  g(F)=  0.000E+00 g(S)=  0.000E+00 dE (1.order)= 0.000E+00
 bond charge predicted
       N       E                     dE             d eps       ncg     rms          rms(c)
DAV:   1    -0.129420440234E+03   -0.17416E-03   -0.93353E-03   330   0.501E-01    0.195E-02
DAV:   2    -0.129420454122E+03   -0.13888E-04   -0.19730E-04   282   0.644E-02    0.131E-02
DAV:   3    -0.129420453736E+03    0.38542E-06   -0.92652E-06   246   0.160E-02    0.780E-03
DAV:   4    -0.129420454691E+03   -0.95483E-06   -0.53499E-06   226   0.126E-02    0.162E-03
DAV:   5    -0.129420454826E+03   -0.13497E-06   -0.12672E-06   222   0.584E-03    0.939E-04
DAV:   6    -0.129420454982E+03   -0.15568E-06   -0.24823E-07   199   0.235E-03
  32 F= -.12942045E+03 E0= -.12942045E+03  d E =-.188813E-03
damped:  g(F)=  0.000E+00 g(S)=  0.000E+00 dE (1.order)= 0.000E+00
 bond charge predicted
       N       E                     dE             d eps       ncg     rms          rms(c)
DAV:   1    -0.129420651962E+03   -0.19714E-03   -0.13578E-02   332   0.602E-01    0.227E-02
DAV:   2    -0.129420671028E+03   -0.19066E-04   -0.26765E-04   300   0.749E-02    0.150E-02
DAV:   3    -0.129420671292E+03   -0.26352E-06   -0.12321E-05   245   0.184E-02    0.873E-03
DAV:   4    -0.129420673495E+03   -0.22028E-05   -0.64252E-06   227   0.139E-02    0.165E-03
DAV:   5    -0.129420673724E+03   -0.22906E-06   -0.16292E-06   235   0.645E-03    0.102E-03
DAV:   6    -0.129420673901E+03   -0.17769E-06   -0.33232E-07   218   0.256E-03
  33 F= -.12942067E+03 E0= -.12942067E+03  d E =-.218919E-03
damped:  g(F)=  0.000E+00 g(S)=  0.000E+00 dE (1.order)= 0.000E+00
 bond charge predicted
       N       E                     dE             d eps       ncg     rms          rms(c)
DAV:   1    -0.129420917207E+03   -0.24348E-03   -0.19809E-02   332   0.726E-01    0.271E-02
DAV:   2    -0.129420946191E+03   -0.28984E-04   -0.40559E-04   372   0.903E-02    0.183E-02
DAV:   3    -0.129420945591E+03    0.59962E-06   -0.10343E-05   255   0.185E-02    0.107E-02
DAV:   4    -0.129420949505E+03   -0.39135E-05   -0.86290E-06   225   0.161E-02    0.192E-03
DAV:   5    -0.129420949783E+03   -0.27815E-06   -0.20011E-06   272   0.736E-03    0.119E-03
DAV:   6    -0.129420949923E+03   -0.14044E-06   -0.27975E-07   216   0.263E-03
  34 F= -.12942095E+03 E0= -.12942095E+03  d E =-.276022E-03
damped:  g(F)=  0.000E+00 g(S)=  0.000E+00 dE (1.order)= 0.000E+00
 bond charge predicted
       N       E                     dE             d eps       ncg     rms          rms(c)
DAV:   1    -0.129421230885E+03   -0.28110E-03   -0.29572E-02   335   0.886E-01    0.330E-02
DAV:   2    -0.129421277528E+03   -0.46643E-04   -0.65156E-04   396   0.113E-01    0.229E-02
DAV:   3    -0.129421275252E+03    0.22765E-05   -0.10908E-05   246   0.199E-02    0.139E-02
DAV:   4    -0.129421281510E+03   -0.62586E-05   -0.15193E-05   241   0.207E-02    0.287E-03
DAV:   5    -0.129421281792E+03   -0.28135E-06   -0.32675E-06   272   0.976E-03    0.158E-03
DAV:   6    -0.129421281926E+03   -0.13468E-06   -0.35224E-07   216   0.317E-03
  35 F= -.12942128E+03 E0= -.12942128E+03  d E =-.332003E-03
damped:  g(F)=  0.000E+00 g(S)=  0.000E+00 dE (1.order)= 0.000E+00
 bond charge predicted
       N       E                     dE             d eps       ncg     rms          rms(c)
DAV:   1    -0.129421586442E+03   -0.30465E-03   -0.42605E-02   335   0.106E+00    0.394E-02
DAV:   2    -0.129421655006E+03   -0.68565E-04   -0.94802E-04   396   0.136E-01    0.273E-02
DAV:   3    -0.129421651616E+03    0.33903E-05   -0.16099E-05   236   0.240E-02    0.168E-02
DAV:   4    -0.129421661766E+03   -0.10150E-04   -0.22908E-05   250   0.252E-02    0.375E-03
DAV:   5    -0.129421662212E+03   -0.44626E-06   -0.51907E-06   255   0.122E-02    0.195E-03
DAV:   6    -0.129421662427E+03   -0.21535E-06   -0.56160E-07   182   0.388E-03
  36 F= -.12942166E+03 E0= -.12942166E+03  d E =-.380501E-03
damped:  g(F)=  0.000E+00 g(S)=  0.000E+00 dE (1.order)= 0.000E+00
 bond charge predicted
       N       E                     dE             d eps       ncg     rms          rms(c)
DAV:   1    -0.129422010277E+03   -0.34806E-03   -0.59296E-02   332   0.125E+00    0.465E-02
DAV:   2    -0.129422106231E+03   -0.95955E-04   -0.13176E-03   385   0.159E-01    0.320E-02
DAV:   3    -0.129422101272E+03    0.49593E-05   -0.22776E-05   264   0.285E-02    0.197E-02
DAV:   4    -0.129422115996E+03   -0.14724E-04   -0.32491E-05   232   0.298E-02    0.471E-03
DAV:   5    -0.129422116542E+03   -0.54592E-06   -0.74480E-06   272   0.146E-02    0.238E-03
DAV:   6    -0.129422116827E+03   -0.28509E-06   -0.85075E-07   214   0.460E-03
  37 F= -.12942212E+03 E0= -.12942212E+03  d E =-.454399E-03
damped:  g(F)=  0.000E+00 g(S)=  0.000E+00 dE (1.order)= 0.000E+00
 bond charge predicted
       N       E                     dE             d eps       ncg     rms          rms(c)
DAV:   1    -0.129422473771E+03   -0.35723E-03   -0.84549E-02   329   0.148E+00    0.548E-02
DAV:   2    -0.129422616186E+03   -0.14241E-03   -0.19256E-03   377   0.190E-01    0.383E-02
DAV:   3    -0.129422607666E+03    0.85202E-05   -0.30897E-05   272   0.334E-02    0.239E-02
DAV:   4    -0.129422627131E+03   -0.19466E-04   -0.47380E-05   289   0.357E-02    0.569E-03
DAV:   5    -0.129422627683E+03   -0.55191E-06   -0.10046E-05   272   0.170E-02    0.295E-03
DAV:   6    -0.129422628095E+03   -0.41144E-06   -0.12092E-06   216   0.551E-03
  38 F= -.12942263E+03 E0= -.12942263E+03  d E =-.511268E-03
damped:  g(F)=  0.000E+00 g(S)=  0.000E+00 dE (1.order)= 0.000E+00
 bond charge predicted
       N       E                     dE             d eps       ncg     rms          rms(c)
DAV:   1    -0.129423006486E+03   -0.37880E-03   -0.11835E-01   328   0.175E+00    0.634E-02
DAV:   2    -0.129423203862E+03   -0.19738E-03   -0.26351E-03   387   0.221E-01    0.434E-02
DAV:   3    -0.129423196612E+03    0.72500E-05   -0.37608E-05   227   0.369E-02    0.266E-02
DAV:   4    -0.129423225210E+03   -0.28597E-04   -0.54085E-05   250   0.393E-02    0.546E-03
DAV:   5    -0.129423226392E+03   -0.11827E-05   -0.12000E-05   272   0.183E-02    0.316E-03
DAV:   6    -0.129423226877E+03   -0.48421E-06   -0.13512E-06   220   0.578E-03
  39 F= -.12942323E+03 E0= -.12942323E+03  d E =-.598782E-03
damped:  g(F)=  0.000E+00 g(S)=  0.000E+00 dE (1.order)= 0.000E+00
 bond charge predicted
       N       E                     dE             d eps       ncg     rms          rms(c)
DAV:   1    -0.129423581243E+03   -0.35485E-03   -0.16737E-01   329   0.208E+00    0.756E-02
DAV:   2    -0.129423869538E+03   -0.28830E-03   -0.38384E-03   396   0.267E-01    0.518E-02
DAV:   3    -0.129423860560E+03    0.89781E-05   -0.59312E-05   318   0.440E-02    0.315E-02
DAV:   4    -0.129423898441E+03   -0.37881E-04   -0.58545E-05   258   0.440E-02    0.495E-03
DAV:   5    -0.129423900502E+03   -0.20607E-05   -0.13840E-05   272   0.190E-02    0.363E-03
DAV:   6    -0.129423901065E+03   -0.56310E-06   -0.16010E-06   260   0.630E-03
  40 F= -.12942390E+03 E0= -.12942390E+03  d E =-.674188E-03
damped:  g(F)=  0.000E+00 g(S)=  0.000E+00 dE (1.order)= 0.000E+00
 bond charge predicted
       N       E                     dE             d eps       ncg     rms          rms(c)
DAV:   1    -0.129424267009E+03   -0.36651E-03   -0.22004E-01   330   0.238E+00    0.876E-02
DAV:   2    -0.129424643126E+03   -0.37612E-03   -0.49630E-03   362   0.304E-01    0.597E-02
DAV:   3    -0.129424634632E+03    0.84948E-05   -0.10441E-04   360   0.533E-02    0.365E-02
DAV:   4    -0.129424685051E+03   -0.50419E-04   -0.88447E-05   241   0.533E-02    0.703E-03
DAV:   5    -0.129424686771E+03   -0.17203E-05   -0.21904E-05   271   0.244E-02    0.426E-03
DAV:   6    -0.129424687691E+03   -0.91995E-06   -0.22374E-06   200   0.747E-03
  41 F= -.12942469E+03 E0= -.12942469E+03  d E =-.786626E-03
damped:  g(F)=  0.000E+00 g(S)=  0.000E+00 dE (1.order)= 0.000E+00
 bond charge predicted
       N       E                     dE             d eps       ncg     rms          rms(c)
DAV:   1    -0.129424976406E+03   -0.28963E-03   -0.29820E-01   328   0.277E+00    0.105E-01
DAV:   2    -0.129425497498E+03   -0.52109E-03   -0.68466E-03   362   0.359E-01    0.707E-02
DAV:   3    -0.129425482312E+03    0.15186E-04   -0.14354E-04   368   0.634E-02    0.433E-02
DAV:   4    -0.129425545449E+03   -0.63136E-04   -0.12590E-04   268   0.629E-02    0.866E-03
DAV:   5    -0.129425547697E+03   -0.22486E-05   -0.30632E-05   272   0.291E-02    0.499E-03
DAV:   6    -0.129425549105E+03   -0.14078E-05   -0.32721E-06   212   0.896E-03
  42 F= -.12942555E+03 E0= -.12942555E+03  d E =-.861414E-03
damped:  g(F)=  0.000E+00 g(S)=  0.000E+00 dE (1.order)= 0.000E+00
 bond charge predicted
       N       E                     dE             d eps       ncg     rms          rms(c)
DAV:   1    -0.129425801749E+03   -0.25405E-03   -0.39788E-01   328   0.322E+00    0.121E-01
DAV:   2    -0.129426488276E+03   -0.68653E-03   -0.89682E-03   364   0.414E-01    0.810E-02
DAV:   3    -0.129426480923E+03    0.73532E-05   -0.18368E-04   349   0.712E-02    0.487E-02
DAV:   4    -0.129426557687E+03   -0.76764E-04   -0.15224E-04   267   0.708E-02    0.841E-03
DAV:   5    -0.129426560992E+03   -0.33050E-05   -0.37270E-05   304   0.315E-02    0.569E-03
DAV:   6    -0.129426562199E+03   -0.12076E-05   -0.32159E-06   246   0.932E-03
  43 F= -.12942656E+03 E0= -.12942656E+03  d E =-.101309E-02
damped:  g(F)=  0.000E+00 g(S)=  0.000E+00 dE (1.order)= 0.000E+00
 bond charge predicted
       N       E                     dE             d eps       ncg     rms          rms(c)
DAV:   1    -0.129426764510E+03   -0.20352E-03   -0.50525E-01   328   0.364E+00    0.140E-01
DAV:   2    -0.129427620968E+03   -0.85646E-03   -0.11221E-02   362   0.466E-01    0.935E-02
DAV:   3    -0.129427608902E+03    0.12066E-04   -0.23134E-04   392   0.817E-02    0.561E-02
DAV:   4    -0.129427703624E+03   -0.94722E-04   -0.19298E-04   268   0.781E-02    0.103E-02
DAV:   5    -0.129427707765E+03   -0.41405E-05   -0.46856E-05   304   0.357E-02    0.663E-03
DAV:   6    -0.129427709668E+03   -0.19029E-05   -0.43025E-06   220   0.105E-02
  44 F= -.12942771E+03 E0= -.12942771E+03  d E =-.114747E-02
damped:  g(F)=  0.000E+00 g(S)=  0.000E+00 dE (1.order)= 0.000E+00
 bond charge predicted
       N       E                     dE             d eps       ncg     rms          rms(c)
DAV:   1    -0.129427653462E+03    0.54303E-04   -0.68247E-01   328   0.424E+00    0.166E-01
DAV:   2    -0.129428835711E+03   -0.11822E-02   -0.15486E-02   364   0.552E-01    0.108E-01
DAV:   3    -0.129428837025E+03   -0.13143E-05   -0.33539E-04   396   0.953E-02    0.636E-02
DAV:   4    -0.129428957958E+03   -0.12093E-03   -0.21738E-04   275   0.859E-02    0.109E-02
DAV:   5    -0.129428964103E+03   -0.61447E-05   -0.55327E-05   304   0.387E-02    0.745E-03
DAV:   6    -0.129428966153E+03   -0.20502E-05   -0.50695E-06   274   0.116E-02
  45 F= -.12942897E+03 E0= -.12942897E+03  d E =-.125649E-02
damped:  g(F)=  0.000E+00 g(S)=  0.000E+00 dE (1.order)= 0.000E+00
 bond charge predicted
       N       E                     dE             d eps       ncg     rms          rms(c)
DAV:   1    -0.129428283716E+03    0.68039E-03   -0.85398E-01   328   0.477E+00    0.191E-01
DAV:   2    -0.129429857230E+03   -0.15735E-02   -0.20741E-02   345   0.643E-01    0.130E-01
DAV:   3    -0.129429808380E+03    0.48850E-04   -0.46927E-04   432   0.117E-01    0.802E-02
DAV:   4    -0.129429943156E+03   -0.13478E-03   -0.36771E-04   379   0.104E-01    0.158E-02
DAV:   5    -0.129429949139E+03   -0.59831E-05   -0.67270E-05   304   0.431E-02    0.936E-03
DAV:   6    -0.129429952722E+03   -0.35830E-05   -0.72666E-06   302   0.142E-02
  46 F= -.12942995E+03 E0= -.12942995E+03  d E =-.986569E-03
damped:  g(F)=  0.000E+00 g(S)=  0.000E+00 dE (1.order)= 0.000E+00
 bond charge predicted
       N       E                     dE             d eps       ncg     rms          rms(c)
DAV:   1    -0.129430427123E+03   -0.47798E-03   -0.29352E-02   330   0.929E-01    0.575E-02
DAV:   2    -0.129430533766E+03   -0.10664E-03   -0.13976E-03   401   0.175E-01    0.343E-02
DAV:   3    -0.129430521780E+03    0.11986E-04   -0.37450E-05   296   0.367E-02    0.198E-02
DAV:   4    -0.129430518784E+03    0.29963E-05   -0.32020E-05   272   0.304E-02    0.449E-03
DAV:   5    -0.129430520325E+03   -0.15413E-05   -0.77705E-06   336   0.144E-02    0.233E-03
DAV:   6    -0.129430521545E+03   -0.12198E-05   -0.11779E-06   254   0.565E-03
  47 F= -.12943052E+03 E0= -.12943052E+03  d E =-.568823E-03
damped:  g(F)=  0.000E+00 g(S)=  0.000E+00 dE (1.order)= 0.000E+00
 bond charge predicted
       N       E                     dE             d eps       ncg     rms          rms(c)
DAV:   1    -0.129430138284E+03    0.38204E-03   -0.32514E-02   354   0.979E-01    0.582E-02
DAV:   2    -0.129430243388E+03   -0.10510E-03   -0.15303E-03   387   0.182E-01    0.357E-02
DAV:   3    -0.129430221926E+03    0.21463E-04   -0.40456E-05   304   0.381E-02    0.208E-02
DAV:   4    -0.129430207699E+03    0.14226E-04   -0.35286E-05   264   0.319E-02    0.487E-03
DAV:   5    -0.129430207350E+03    0.34908E-06   -0.85364E-06   304   0.153E-02    0.258E-03
DAV:   6    -0.129430209221E+03   -0.18706E-05   -0.13294E-06   266   0.618E-03
  48 F= -.12943021E+03 E0= -.12943021E+03  d E =0.312324E-03
damped:  g(F)=  0.000E+00 g(S)=  0.000E+00 dE (1.order)= 0.000E+00
 bond charge predicted
       N       E                     dE             d eps       ncg     rms          rms(c)
DAV:   1    -0.129430370577E+03   -0.16323E-03   -0.12929E-03   364   0.195E-01    0.123E-02
DAV:   2    -0.129430377776E+03   -0.71987E-05   -0.55283E-05   294   0.363E-02    0.692E-03
DAV:   3    -0.129430380546E+03   -0.27698E-05   -0.48031E-06   218   0.118E-02    0.363E-03
DAV:   4    -0.129430383957E+03   -0.34112E-05   -0.13881E-06   292   0.608E-03    0.121E-03
DAV:   5    -0.129430386183E+03   -0.22259E-05   -0.39325E-07   293   0.331E-03    0.559E-04
DAV:   6    -0.129430387018E+03   -0.83553E-06   -0.63193E-08   222   0.148E-03
  49 F= -.12943039E+03 E0= -.12943039E+03  d E =-.177798E-03
damped:  g(F)=  0.000E+00 g(S)=  0.000E+00 dE (1.order)= 0.000E+00
 bond charge predicted
       N       E                     dE             d eps       ncg     rms          rms(c)
DAV:   1    -0.129430568835E+03   -0.18265E-03   -0.41002E-03   354   0.348E-01    0.215E-02
DAV:   2    -0.129430582297E+03   -0.13463E-04   -0.18883E-04   304   0.658E-02    0.124E-02
DAV:   3    -0.129430581070E+03    0.12277E-05   -0.99731E-06   268   0.170E-02    0.718E-03
DAV:   4    -0.129430580298E+03    0.77214E-06   -0.46615E-06   273   0.113E-02    0.179E-03
DAV:   5    -0.129430580386E+03   -0.88990E-07   -0.11651E-06   304   0.555E-03    0.884E-04
DAV:   6    -0.129430580593E+03   -0.20669E-06   -0.20968E-07   220   0.240E-03
  50 F= -.12943058E+03 E0= -.12943058E+03  d E =-.193575E-03
damped:  g(F)=  0.000E+00 g(S)=  0.000E+00 dE (1.order)= 0.000E+00
 bond charge predicted
       N       E                     dE             d eps       ncg     rms          rms(c)
DAV:   1    -0.129430637285E+03   -0.56899E-04   -0.58999E-03   372   0.417E-01    0.256E-02
DAV:   2    -0.129430654418E+03   -0.17133E-04   -0.27737E-04   333   0.790E-02    0.152E-02
DAV:   3    -0.129430650535E+03    0.38831E-05   -0.10495E-05   272   0.190E-02    0.898E-03
DAV:   4    -0.129430647228E+03    0.33076E-05   -0.86603E-06   290   0.155E-02    0.234E-03
DAV:   5    -0.129430647027E+03    0.20096E-06   -0.18476E-06   272   0.772E-03    0.122E-03
DAV:   6    -0.129430647294E+03   -0.26767E-06   -0.36441E-07   218   0.319E-03
  51 F= -.12943065E+03 E0= -.12943065E+03  d E =-.667011E-04
damped:  g(F)=  0.000E+00 g(S)=  0.000E+00 dE (1.order)= 0.000E+00
 bond charge predicted
       N       E                     dE             d eps       ncg     rms          rms(c)
DAV:   1    -0.129430650619E+03   -0.35924E-05   -0.30164E-06   237   0.937E-03    0.612E-04
DAV:   2    -0.129430651151E+03   -0.53157E-06   -0.24967E-07   238   0.269E-03    0.423E-04
DAV:   3    -0.129430651814E+03   -0.66337E-06   -0.55921E-08   218   0.107E-03    0.278E-04
DAV:   4    -0.129430652845E+03   -0.10311E-05   -0.32588E-08   228   0.698E-04    0.112E-04
DAV:   5    -0.129430653484E+03   -0.63892E-06   -0.11847E-08   271   0.499E-04    0.936E-05
DAV:   6    -0.129430654578E+03   -0.10939E-05   -0.33054E-08   264   0.558E-04
  52 F= -.12943065E+03 E0= -.12943065E+03  d E =-.728363E-05
damped:  g(F)=  0.000E+00 g(S)=  0.000E+00 dE (1.order)= 0.000E+00
 bond charge predicted
       N       E                     dE             d eps       ncg     rms          rms(c)
DAV:   1    -0.129430660220E+03   -0.67365E-05   -0.13380E-05   246   0.198E-02    0.845E-04
DAV:   2    -0.129430660474E+03   -0.25371E-06   -0.85673E-07   272   0.524E-03    0.538E-04
DAV:   3    -0.129430660635E+03   -0.16070E-06   -0.83157E-08   222   0.161E-03    0.411E-04
DAV:   4    -0.129430660897E+03   -0.26191E-06   -0.26454E-09   235   0.903E-04    0.113E-04
DAV:   5    -0.129430661037E+03   -0.14015E-06    0.15670E-08   264   0.445E-04    0.684E-05
DAV:   6    -0.129430661123E+03   -0.85908E-07    0.20998E-08   200   0.253E-04
  53 F= -.12943066E+03 E0= -.12943066E+03  d E =-.654490E-05
damped:  g(F)=  0.000E+00 g(S)=  0.000E+00 dE (1.order)= 0.000E+00
 bond charge predicted
       N       E                     dE             d eps       ncg     rms          rms(c)
DAV:   1    -0.129430668342E+03   -0.73047E-05   -0.30839E-05   248   0.299E-02    0.128E-03
DAV:   2    -0.129430668551E+03   -0.20959E-06   -0.19882E-06   200   0.787E-03    0.793E-04
DAV:   3    -0.129430668600E+03   -0.48458E-07   -0.23846E-07   212   0.243E-03    0.605E-04
DAV:   4    -0.129430668633E+03   -0.33430E-07   -0.44047E-08   228   0.134E-03    0.167E-04
DAV:   5    -0.129430668647E+03   -0.13623E-07    0.25084E-09   167   0.649E-04    0.100E-04
DAV:   6    -0.129430668656E+03   -0.92500E-08    0.17306E-08   191   0.360E-04
  54 F= -.12943067E+03 E0= -.12943067E+03  d E =-.753318E-05
damped:  g(F)=  0.000E+00 g(S)=  0.000E+00 dE (1.order)= 0.000E+00
 bond charge predicted
       N       E                     dE             d eps       ncg     rms          rms(c)
DAV:   1    -0.129430677584E+03   -0.89369E-05   -0.53842E-05   164   0.393E-02    0.168E-03
DAV:   2    -0.129430677894E+03   -0.31036E-06   -0.34441E-06   164   0.103E-02    0.103E-03
DAV:   3    -0.129430677936E+03   -0.42171E-07   -0.42797E-07   164   0.318E-03    0.784E-04
DAV:   4    -0.129430677944E+03   -0.76452E-08   -0.91064E-08   200   0.174E-03    0.211E-04
DAV:   5    -0.129430677951E+03   -0.70904E-08   -0.11690E-08   164   0.842E-04    0.130E-04
DAV:   6    -0.129430677956E+03   -0.54597E-08    0.13130E-08   164   0.464E-04
  55 F= -.12943068E+03 E0= -.12943068E+03  d E =-.930035E-05
damped:  g(F)=  0.000E+00 g(S)=  0.000E+00 dE (1.order)= 0.000E+00
 bond charge predicted
       N       E                     dE             d eps       ncg     rms          rms(c)
DAV:   1    -0.129430688384E+03   -0.10433E-04   -0.80695E-05   164   0.479E-02    0.204E-03
DAV:   2    -0.129430688841E+03   -0.45664E-06   -0.51037E-06   164   0.125E-02    0.123E-03
DAV:   3    -0.129430688899E+03   -0.57856E-07   -0.64531E-07   164   0.386E-03    0.939E-04
DAV:   4    -0.129430688899E+03   -0.31741E-09   -0.14447E-07   188   0.210E-03    0.247E-04
DAV:   5    -0.129430688902E+03   -0.31014E-08   -0.28345E-08   164   0.101E-03    0.156E-04
DAV:   6    -0.129430688907E+03   -0.44702E-08    0.78097E-09   164   0.552E-04
  56 F= -.12943069E+03 E0= -.12943069E+03  d E =-.109503E-04
damped:  g(F)=  0.000E+00 g(S)=  0.000E+00 dE (1.order)= 0.000E+00
 bond charge predicted
       N       E                     dE             d eps       ncg     rms          rms(c)
DAV:   1    -0.129430700684E+03   -0.11782E-04   -0.10990E-04   164   0.557E-02    0.237E-03
DAV:   2    -0.129430701303E+03   -0.61945E-06   -0.68563E-06   164   0.145E-02    0.141E-03
DAV:   3    -0.129430701385E+03   -0.81485E-07   -0.87441E-07   164   0.445E-03    0.107E-03
DAV:   4    -0.129430701388E+03   -0.36571E-08   -0.19866E-07   164   0.240E-03    0.275E-04
DAV:   5    -0.129430701394E+03   -0.50659E-08   -0.45019E-08   164   0.115E-03    0.179E-04
DAV:   6    -0.129430701399E+03   -0.53178E-08    0.23931E-09   164   0.622E-04
  57 F= -.12943070E+03 E0= -.12943070E+03  d E =-.124922E-04
damped:  g(F)=  0.000E+00 g(S)=  0.000E+00 dE (1.order)= 0.000E+00
 bond charge predicted
       N       E                     dE             d eps       ncg     rms          rms(c)
DAV:   1    -0.129430716150E+03   -0.14757E-04   -0.17675E-04   196   0.698E-02    0.300E-03
DAV:   2    -0.129430716919E+03   -0.76898E-06   -0.88448E-06   164   0.161E-02    0.175E-03
DAV:   3    -0.129430717024E+03   -0.10497E-06   -0.10447E-06   164   0.510E-03    0.123E-03
DAV:   4    -0.129430717033E+03   -0.94296E-08   -0.22956E-07   164   0.271E-03    0.227E-04
DAV:   5    -0.129430717043E+03   -0.96788E-08   -0.48171E-08   164   0.127E-03    0.208E-04
DAV:   6    -0.129430717049E+03   -0.63114E-08    0.30735E-09   164   0.646E-04
  58 F= -.12943072E+03 E0= -.12943072E+03  d E =-.156506E-04
damped:  g(F)=  0.000E+00 g(S)=  0.000E+00 dE (1.order)= 0.000E+00
 bond charge predicted
       N       E                     dE             d eps       ncg     rms          rms(c)
DAV:   1    -0.129430736338E+03   -0.19294E-04   -0.28256E-04   260   0.864E-02    0.379E-03
DAV:   2    -0.129430736698E+03   -0.36040E-06   -0.56213E-06   164   0.123E-02    0.231E-03
DAV:   3    -0.129430736769E+03   -0.71444E-07   -0.65187E-07   164   0.447E-03    0.114E-03
DAV:   4    -0.129430736799E+03   -0.29520E-07   -0.15989E-07   164   0.226E-03    0.255E-04
DAV:   5    -0.129430736812E+03   -0.13398E-07   -0.26644E-08   164   0.117E-03    0.147E-04
DAV:   6    -0.129430736824E+03   -0.11752E-07    0.62242E-09   164   0.592E-04
  59 F= -.12943074E+03 E0= -.12943074E+03  d E =-.197747E-04
damped:  g(F)=  0.000E+00 g(S)=  0.000E+00 dE (1.order)= 0.000E+00
 bond charge predicted
       N       E                     dE             d eps       ncg     rms          rms(c)
DAV:   1    -0.129430761383E+03   -0.24571E-04   -0.43195E-04   260   0.106E-01    0.468E-03
DAV:   2    -0.129430761909E+03   -0.52593E-06   -0.80832E-06   164   0.148E-02    0.282E-03
DAV:   3    -0.129430762042E+03   -0.13300E-06   -0.94122E-07   164   0.538E-03    0.133E-03
DAV:   4    -0.129430762100E+03   -0.58197E-07   -0.23345E-07   164   0.264E-03    0.287E-04
DAV:   5    -0.129430762113E+03   -0.12834E-07   -0.46647E-08   164   0.135E-03    0.160E-04
DAV:   6    -0.129430762123E+03   -0.96807E-08   -0.29365E-10   164   0.685E-04
  60 F= -.12943076E+03 E0= -.12943076E+03  d E =-.252986E-04
damped:  g(F)=  0.000E+00 g(S)=  0.000E+00 dE (1.order)= 0.000E+00
 bond charge predicted
       N       E                     dE             d eps       ncg     rms          rms(c)
DAV:   1    -0.129430793856E+03   -0.31743E-04   -0.66128E-04   292   0.131E-01    0.580E-03
DAV:   2    -0.129430794401E+03   -0.54482E-06   -0.96139E-06   164   0.155E-02    0.352E-03
DAV:   3    -0.129430794573E+03   -0.17262E-06   -0.11097E-06   164   0.551E-03    0.154E-03
DAV:   4    -0.129430794658E+03   -0.84865E-07   -0.28955E-07   164   0.271E-03    0.327E-04
DAV:   5    -0.129430794670E+03   -0.11415E-07   -0.58963E-08   164   0.134E-03    0.158E-04
DAV:   6    -0.129430794677E+03   -0.74970E-08   -0.55268E-09   164   0.688E-04
  61 F= -.12943079E+03 E0= -.12943079E+03  d E =-.325545E-04
damped:  g(F)=  0.000E+00 g(S)=  0.000E+00 dE (1.order)= 0.000E+00
 bond charge predicted
       N       E                     dE             d eps       ncg     rms          rms(c)
DAV:   1    -0.129430835012E+03   -0.40342E-04   -0.10077E-03   292   0.163E-01    0.717E-03
DAV:   2    -0.129430835851E+03   -0.83934E-06   -0.14923E-05   201   0.193E-02    0.436E-03
DAV:   3    -0.129430836102E+03   -0.25099E-06   -0.17190E-06   164   0.683E-03    0.194E-03
DAV:   4    -0.129430836226E+03   -0.12382E-06   -0.46095E-07   166   0.337E-03    0.421E-04
DAV:   5    -0.129430836241E+03   -0.15163E-07   -0.10407E-07   164   0.167E-03    0.207E-04
DAV:   6    -0.129430836249E+03   -0.81818E-08   -0.19999E-08   164   0.832E-04
  62 F= -.12943084E+03 E0= -.12943084E+03  d E =-.415720E-04
damped:  g(F)=  0.000E+00 g(S)=  0.000E+00 dE (1.order)= 0.000E+00
 bond charge predicted
       N       E                     dE             d eps       ncg     rms          rms(c)
DAV:   1    -0.129430886380E+03   -0.50139E-04   -0.15286E-03   292   0.201E-01    0.887E-03
DAV:   2    -0.129430887703E+03   -0.13227E-05   -0.23420E-05   219   0.242E-02    0.540E-03
DAV:   3    -0.129430888054E+03   -0.35121E-06   -0.26820E-06   191   0.851E-03    0.247E-03
DAV:   4    -0.129430888238E+03   -0.18405E-06   -0.73435E-07   189   0.423E-03    0.546E-04
DAV:   5    -0.129430888262E+03   -0.23661E-07   -0.17681E-07   164   0.211E-03    0.272E-04
DAV:   6    -0.129430888280E+03   -0.18301E-07   -0.43599E-08   164   0.104E-03
  63 F= -.12943089E+03 E0= -.12943089E+03  d E =-.520312E-04
damped:  g(F)=  0.000E+00 g(S)=  0.000E+00 dE (1.order)= 0.000E+00
 bond charge predicted
       N       E                     dE             d eps       ncg     rms          rms(c)
DAV:   1    -0.129430949135E+03   -0.60873E-04   -0.22851E-03   324   0.246E-01    0.108E-02
DAV:   2    -0.129430951170E+03   -0.20348E-05   -0.35603E-05   237   0.298E-02    0.660E-03
DAV:   3    -0.129430951666E+03   -0.49681E-06   -0.40472E-06   218   0.104E-02    0.305E-03
DAV:   4    -0.129430951938E+03   -0.27183E-06   -0.11146E-06   228   0.520E-03    0.674E-04
DAV:   5    -0.129430951979E+03   -0.41002E-07   -0.27774E-07   164   0.260E-03    0.337E-04
DAV:   6    -0.129430952014E+03   -0.35076E-07   -0.77106E-08   165   0.128E-03
  64 F= -.12943095E+03 E0= -.12943095E+03  d E =-.637339E-04
damped:  g(F)=  0.000E+00 g(S)=  0.000E+00 dE (1.order)= 0.000E+00
 bond charge predicted
       N       E                     dE             d eps       ncg     rms          rms(c)
DAV:   1    -0.129431026071E+03   -0.74092E-04   -0.33629E-03   327   0.299E-01    0.131E-02
DAV:   2    -0.129431029115E+03   -0.30444E-05   -0.52132E-05   201   0.361E-02    0.793E-03
DAV:   3    -0.129431029867E+03   -0.75184E-06   -0.58715E-06   200   0.126E-02    0.362E-03
DAV:   4    -0.129431030288E+03   -0.42056E-06   -0.16033E-06   236   0.623E-03    0.785E-04
DAV:   5    -0.129431030354E+03   -0.66157E-07   -0.40607E-07   165   0.310E-03    0.389E-04
DAV:   6    -0.129431030406E+03   -0.52107E-07   -0.11980E-07   199   0.154E-03
  65 F= -.12943103E+03 E0= -.12943103E+03  d E =-.783915E-04
damped:  g(F)=  0.000E+00 g(S)=  0.000E+00 dE (1.order)= 0.000E+00
 bond charge predicted
       N       E                     dE             d eps       ncg     rms          rms(c)
DAV:   1    -0.129431121072E+03   -0.90719E-04   -0.49379E-03   327   0.363E-01    0.157E-02
DAV:   2    -0.129431125707E+03   -0.46352E-05   -0.76582E-05   235   0.436E-02    0.952E-03
DAV:   3    -0.129431126830E+03   -0.11226E-05   -0.85250E-06   218   0.152E-02    0.430E-03
DAV:   4    -0.129431127459E+03   -0.62928E-06   -0.23007E-06   271   0.749E-03    0.907E-04
DAV:   5    -0.129431127543E+03   -0.83502E-07   -0.58619E-07   184   0.370E-03    0.440E-04
DAV:   6    -0.129431127599E+03   -0.56159E-07   -0.17991E-07   180   0.188E-03
  66 F= -.12943113E+03 E0= -.12943113E+03  d E =-.971931E-04
damped:  g(F)=  0.000E+00 g(S)=  0.000E+00 dE (1.order)= 0.000E+00
 bond charge predicted
       N       E                     dE             d eps       ncg     rms          rms(c)
DAV:   1    -0.129431236734E+03   -0.10919E-03   -0.72555E-03   344   0.440E-01    0.189E-02
DAV:   2    -0.129431244290E+03   -0.75551E-05   -0.11876E-04   268   0.534E-02    0.115E-02
DAV:   3    -0.129431245482E+03   -0.11921E-05   -0.94432E-06   244   0.150E-02    0.551E-03
DAV:   4    -0.129431246388E+03   -0.90676E-06   -0.33832E-06   271   0.885E-03    0.109E-03
DAV:   5    -0.129431246484E+03   -0.95290E-07   -0.87484E-07   217   0.436E-03    0.551E-04
DAV:   6    -0.129431246544E+03   -0.59938E-07   -0.25723E-07   172   0.209E-03
  67 F= -.12943125E+03 E0= -.12943125E+03  d E =-.118945E-03
damped:  g(F)=  0.000E+00 g(S)=  0.000E+00 dE (1.order)= 0.000E+00
 bond charge predicted
       N       E                     dE             d eps       ncg     rms          rms(c)
DAV:   1    -0.129431374408E+03   -0.12792E-03   -0.10534E-02   330   0.532E-01    0.227E-02
DAV:   2    -0.129431385908E+03   -0.11500E-04   -0.17618E-04   268   0.649E-02    0.138E-02
DAV:   3    -0.129431387536E+03   -0.16279E-05   -0.13657E-05   228   0.181E-02    0.669E-03
DAV:   4    -0.129431388831E+03   -0.12953E-05   -0.49133E-06   255   0.107E-02    0.131E-03
DAV:   5    -0.129431388973E+03   -0.14226E-06   -0.12812E-06   225   0.528E-03    0.667E-04
DAV:   6    -0.129431389065E+03   -0.91816E-07   -0.37936E-07   172   0.253E-03
  68 F= -.12943139E+03 E0= -.12943139E+03  d E =-.142521E-03
damped:  g(F)=  0.000E+00 g(S)=  0.000E+00 dE (1.order)= 0.000E+00
 bond charge predicted
       N       E                     dE             d eps       ncg     rms          rms(c)
DAV:   1    -0.129431538947E+03   -0.14997E-03   -0.14988E-02   329   0.635E-01    0.269E-02
DAV:   2    -0.129431555888E+03   -0.16941E-04   -0.25394E-04   267   0.776E-02    0.164E-02
DAV:   3    -0.129431558225E+03   -0.23368E-05   -0.19162E-05   211   0.215E-02    0.800E-03
DAV:   4    -0.129431560166E+03   -0.19406E-05   -0.69281E-06   236   0.128E-02    0.157E-03
DAV:   5    -0.129431560388E+03   -0.22271E-06   -0.18273E-06   200   0.628E-03    0.807E-04
DAV:   6    -0.129431560519E+03   -0.13035E-06   -0.53849E-07   164   0.295E-03
  69 F= -.12943156E+03 E0= -.12943156E+03  d E =-.171454E-03
damped:  g(F)=  0.000E+00 g(S)=  0.000E+00 dE (1.order)= 0.000E+00
 bond charge predicted
       N       E                     dE             d eps       ncg     rms          rms(c)
DAV:   1    -0.129431734536E+03   -0.17415E-03   -0.21245E-02   328   0.757E-01    0.319E-02
DAV:   2    -0.129431762414E+03   -0.27878E-04   -0.39777E-04   331   0.934E-02    0.202E-02
DAV:   3    -0.129431763123E+03   -0.70866E-06   -0.12717E-05   212   0.205E-02    0.106E-02
DAV:   4    -0.129431765857E+03   -0.27342E-05   -0.86588E-06   244   0.153E-02    0.199E-03
DAV:   5    -0.129431766048E+03   -0.19101E-06   -0.18911E-06   231   0.715E-03    0.115E-03
DAV:   6    -0.129431766203E+03   -0.15527E-06   -0.31817E-07   192   0.272E-03
  70 F= -.12943177E+03 E0= -.12943177E+03  d E =-.205685E-03
damped:  g(F)=  0.000E+00 g(S)=  0.000E+00 dE (1.order)= 0.000E+00
 bond charge predicted
       N       E                     dE             d eps       ncg     rms          rms(c)
DAV:   1    -0.129431961213E+03   -0.19516E-03   -0.30059E-02   331   0.901E-01    0.376E-02
DAV:   2    -0.129432002537E+03   -0.41324E-04   -0.57866E-04   332   0.112E-01    0.237E-02
DAV:   3    -0.129432003662E+03   -0.11254E-05   -0.17675E-05   218   0.241E-02    0.126E-02
DAV:   4    -0.129432007853E+03   -0.41915E-05   -0.12834E-05   267   0.182E-02    0.258E-03
DAV:   5    -0.129432008087E+03   -0.23321E-06   -0.25900E-06   219   0.855E-03    0.140E-03
DAV:   6    -0.129432008285E+03   -0.19818E-06   -0.34042E-07   216   0.305E-03
  71 F= -.12943201E+03 E0= -.12943201E+03  d E =-.242081E-03
damped:  g(F)=  0.000E+00 g(S)=  0.000E+00 dE (1.order)= 0.000E+00
 bond charge predicted
       N       E                     dE             d eps       ncg     rms          rms(c)
DAV:   1    -0.129432223774E+03   -0.21569E-03   -0.42292E-02   332   0.107E+00    0.440E-02
DAV:   2    -0.129432286693E+03   -0.62919E-04   -0.85750E-04   353   0.134E-01    0.279E-02
DAV:   3    -0.129432287197E+03   -0.50437E-06   -0.15799E-05   200   0.240E-02    0.153E-02
DAV:   4    -0.129432293674E+03   -0.64769E-05   -0.17064E-05   268   0.216E-02    0.297E-03
DAV:   5    -0.129432293993E+03   -0.31902E-06   -0.34759E-06   254   0.983E-03    0.173E-03
DAV:   6    -0.129432294250E+03   -0.25668E-06   -0.39639E-07   200   0.333E-03
  72 F= -.12943229E+03 E0= -.12943229E+03  d E =-.285965E-03
damped:  g(F)=  0.000E+00 g(S)=  0.000E+00 dE (1.order)= 0.000E+00
 bond charge predicted
       N       E                     dE             d eps       ncg     rms          rms(c)
DAV:   1    -0.129432521647E+03   -0.22765E-03   -0.58515E-02   332   0.125E+00    0.508E-02
DAV:   2    -0.129432612917E+03   -0.91270E-04   -0.12259E-03   347   0.158E-01    0.324E-02
DAV:   3    -0.129432613536E+03   -0.61913E-06   -0.23755E-05   233   0.278E-02    0.180E-02
DAV:   4    -0.129432623665E+03   -0.10129E-04   -0.19560E-05   268   0.244E-02    0.317E-03
DAV:   5    -0.129432624163E+03   -0.49768E-06   -0.44095E-06   227   0.111E-02    0.190E-03
DAV:   6    -0.129432624545E+03   -0.38272E-06   -0.49536E-07   208   0.370E-03
  73 F= -.12943262E+03 E0= -.12943262E+03  d E =-.330296E-03
damped:  g(F)=  0.000E+00 g(S)=  0.000E+00 dE (1.order)= 0.000E+00
 bond charge predicted
       N       E                     dE             d eps       ncg     rms          rms(c)
DAV:   1    -0.129432850441E+03   -0.22628E-03   -0.81340E-02   331   0.147E+00    0.588E-02
DAV:   2    -0.129432983851E+03   -0.13341E-03   -0.17682E-03   362   0.187E-01    0.378E-02
DAV:   3    -0.129432984115E+03   -0.26382E-06   -0.33062E-05   268   0.324E-02    0.215E-02
DAV:   4    -0.129432999530E+03   -0.15415E-04   -0.27320E-05   268   0.291E-02    0.380E-03
DAV:   5    -0.129433000262E+03   -0.73208E-06   -0.63820E-06   240   0.133E-02    0.232E-03
DAV:   6    -0.129433000806E+03   -0.54407E-06   -0.72346E-07   232   0.435E-03
  74 F= -.12943300E+03 E0= -.12943300E+03  d E =-.376261E-03
damped:  g(F)=  0.000E+00 g(S)=  0.000E+00 dE (1.order)= 0.000E+00
 bond charge predicted
       N       E                     dE             d eps       ncg     rms          rms(c)
DAV:   1    -0.129433199595E+03   -0.19933E-03   -0.11605E-01   330   0.174E+00    0.692E-02
DAV:   2    -0.129433398684E+03   -0.19909E-03   -0.25889E-03   364   0.223E-01    0.442E-02
DAV:   3    -0.129433398639E+03    0.45412E-07   -0.47137E-05   282   0.374E-02    0.254E-02
DAV:   4    -0.129433421458E+03   -0.22819E-04   -0.38530E-05   259   0.353E-02    0.447E-03
DAV:   5    -0.129433422521E+03   -0.10637E-05   -0.90875E-06   254   0.158E-02    0.272E-03
DAV:   6    -0.129433423307E+03   -0.78595E-06   -0.10122E-06   282   0.508E-03
  75 F= -.12943342E+03 E0= -.12943342E+03  d E =-.422501E-03
damped:  g(F)=  0.000E+00 g(S)=  0.000E+00 dE (1.order)= 0.000E+00
 bond charge predicted
       N       E                     dE             d eps       ncg     rms          rms(c)
DAV:   1    -0.129433578809E+03   -0.15629E-03   -0.16409E-01   329   0.206E+00    0.813E-02
DAV:   2    -0.129433863920E+03   -0.28511E-03   -0.37023E-03   363   0.264E-01    0.526E-02
DAV:   3    -0.129433863150E+03    0.77028E-06   -0.67688E-05   332   0.446E-02    0.307E-02
DAV:   4    -0.129433898581E+03   -0.35432E-04   -0.55418E-05   260   0.425E-02    0.546E-03
DAV:   5    -0.129433900085E+03   -0.15039E-05   -0.13482E-05   280   0.190E-02    0.344E-03
DAV:   6    -0.129433901070E+03   -0.98497E-06   -0.12160E-06   224   0.563E-03
  76 F= -.12943390E+03 E0= -.12943390E+03  d E =-.477763E-03
damped:  g(F)=  0.000E+00 g(S)=  0.000E+00 dE (1.order)= 0.000E+00
 bond charge predicted
       N       E                     dE             d eps       ncg     rms          rms(c)
DAV:   1    -0.129433953535E+03   -0.53450E-04   -0.23734E-01   328   0.247E+00    0.973E-02
DAV:   2    -0.129434370787E+03   -0.41725E-03   -0.54231E-03   364   0.321E-01    0.625E-02
DAV:   3    -0.129434369934E+03    0.85292E-06   -0.96761E-05   324   0.529E-02    0.366E-02
DAV:   4    -0.129434421164E+03   -0.51229E-04   -0.82042E-05   291   0.519E-02    0.654E-03
DAV:   5    -0.129434423271E+03   -0.21079E-05   -0.19144E-05   304   0.226E-02    0.413E-03
DAV:   6    -0.129434424661E+03   -0.13897E-05   -0.18225E-06   290   0.691E-03
  77 F= -.12943442E+03 E0= -.12943442E+03  d E =-.523591E-03
damped:  g(F)=  0.000E+00 g(S)=  0.000E+00 dE (1.order)= 0.000E+00
 bond charge predicted
       N       E                     dE             d eps       ncg     rms          rms(c)
DAV:   1    -0.129434293644E+03    0.12963E-03   -0.31900E-01   328   0.288E+00    0.113E-01
DAV:   2    -0.129434864917E+03   -0.57127E-03   -0.74431E-03   330   0.378E-01    0.757E-02
DAV:   3    -0.129434854062E+03    0.10854E-04   -0.14771E-04   368   0.663E-02    0.453E-02
DAV:   4    -0.129434925657E+03   -0.71595E-04   -0.12362E-04   275   0.636E-02    0.812E-03
DAV:   5    -0.129434928347E+03   -0.26901E-05   -0.29090E-05   304   0.280E-02    0.520E-03
DAV:   6    -0.129434930036E+03   -0.16892E-05   -0.28212E-06   204   0.853E-03
  78 F= -.12943493E+03 E0= -.12943493E+03  d E =-.505375E-03
damped:  g(F)=  0.000E+00 g(S)=  0.000E+00 dE (1.order)= 0.000E+00
 bond charge predicted
       N       E                     dE             d eps       ncg     rms          rms(c)
DAV:   1    -0.129434045223E+03    0.88312E-03   -0.48172E-01   328   0.359E+00    0.149E-01
DAV:   2    -0.129435024355E+03   -0.97913E-03   -0.12894E-02   340   0.510E-01    0.939E-02
DAV:   3    -0.129434993763E+03    0.30592E-04   -0.24863E-04   333   0.854E-02    0.553E-02
DAV:   4    -0.129435064268E+03   -0.70505E-04   -0.21404E-04   282   0.837E-02    0.993E-03
DAV:   5    -0.129435070552E+03   -0.62845E-05   -0.46586E-05   304   0.351E-02    0.760E-03
DAV:   6    -0.129435074071E+03   -0.35192E-05   -0.64960E-06   284   0.134E-02
  79 F= -.12943507E+03 E0= -.12943507E+03  d E =-.144035E-03
damped:  g(F)=  0.000E+00 g(S)=  0.000E+00 dE (1.order)= 0.000E+00
 bond charge predicted
       N       E                     dE             d eps       ncg     rms          rms(c)
DAV:   1    -0.129435522919E+03   -0.45237E-03   -0.30007E-02   358   0.859E-01    0.607E-02
DAV:   2    -0.129435622069E+03   -0.99150E-04   -0.12983E-03   369   0.154E-01    0.329E-02
DAV:   3    -0.129435611967E+03    0.10102E-04   -0.31690E-05   268   0.303E-02    0.182E-02
DAV:   4    -0.129435610639E+03    0.13282E-05   -0.27595E-05   265   0.256E-02    0.368E-03
DAV:   5    -0.129435612128E+03   -0.14892E-05   -0.56485E-06   296   0.114E-02    0.217E-03
DAV:   6    -0.129435613136E+03   -0.10080E-05   -0.83855E-07   218   0.455E-03
  80 F= -.12943561E+03 E0= -.12943561E+03  d E =-.539064E-03
damped:  g(F)=  0.000E+00 g(S)=  0.000E+00 dE (1.order)= 0.000E+00
 bond charge predicted
       N       E                     dE             d eps       ncg     rms          rms(c)
DAV:   1    -0.129435174404E+03    0.43772E-03   -0.30917E-02   356   0.889E-01    0.597E-02
DAV:   2    -0.129435268105E+03   -0.93702E-04   -0.13748E-03   410   0.160E-01    0.341E-02
DAV:   3    -0.129435248033E+03    0.20072E-04   -0.33742E-05   304   0.311E-02    0.191E-02
DAV:   4    -0.129435236113E+03    0.11920E-04   -0.30917E-05   296   0.272E-02    0.402E-03
DAV:   5    -0.129435235489E+03    0.62385E-06   -0.61210E-06   272   0.123E-02    0.236E-03
DAV:   6    -0.129435236335E+03   -0.84631E-06   -0.11345E-06   234   0.524E-03
  81 F= -.12943524E+03 E0= -.12943524E+03  d E =0.376801E-03
damped:  g(F)=  0.000E+00 g(S)=  0.000E+00 dE (1.order)= 0.000E+00
 bond charge predicted
       N       E                     dE             d eps       ncg     rms          rms(c)
DAV:   1    -0.129435404514E+03   -0.16903E-03   -0.15200E-03   374   0.193E-01    0.138E-02
DAV:   2    -0.129435410750E+03   -0.62356E-05   -0.59192E-05   276   0.344E-02    0.709E-03
DAV:   3    -0.129435412649E+03   -0.18997E-05   -0.60880E-06   292   0.101E-02    0.389E-03
DAV:   4    -0.129435415277E+03   -0.26279E-05   -0.12975E-06   250   0.553E-03    0.903E-04
DAV:   5    -0.129435416716E+03   -0.14393E-05   -0.31137E-07   264   0.241E-03    0.451E-04
DAV:   6    -0.129435417834E+03   -0.11177E-05   -0.97141E-08   248   0.115E-03
  82 F= -.12943542E+03 E0= -.12943542E+03  d E =-.181499E-03
damped:  g(F)=  0.000E+00 g(S)=  0.000E+00 dE (1.order)= 0.000E+00
 bond charge predicted
       N       E                     dE             d eps       ncg     rms          rms(c)
DAV:   1    -0.129435596143E+03   -0.17943E-03   -0.47510E-03   357   0.342E-01    0.240E-02
DAV:   2    -0.129435610222E+03   -0.14079E-04   -0.20423E-04   298   0.616E-02    0.129E-02
DAV:   3    -0.129435608385E+03    0.18372E-05   -0.70399E-06   236   0.142E-02    0.726E-03
DAV:   4    -0.129435607216E+03    0.11683E-05   -0.54649E-06   266   0.113E-02    0.168E-03
DAV:   5    -0.129435607189E+03    0.27974E-07   -0.10573E-06   272   0.535E-03    0.961E-04
DAV:   6    -0.129435607254E+03   -0.65947E-07   -0.16855E-07   218   0.215E-03
  83 F= -.12943561E+03 E0= -.12943561E+03  d E =-.189420E-03
damped:  g(F)=  0.000E+00 g(S)=  0.000E+00 dE (1.order)= 0.000E+00
 bond charge predicted
       N       E                     dE             d eps       ncg     rms          rms(c)
DAV:   1    -0.129435634792E+03   -0.27603E-04   -0.67256E-03   376   0.409E-01    0.282E-02
DAV:   2    -0.129435652810E+03   -0.18018E-04   -0.29494E-04   348   0.738E-02    0.155E-02
DAV:   3    -0.129435647938E+03    0.48712E-05   -0.89866E-06   272   0.163E-02    0.875E-03
DAV:   4    -0.129435644403E+03    0.35357E-05   -0.74294E-06   234   0.132E-02    0.197E-03
DAV:   5    -0.129435644464E+03   -0.61392E-07   -0.14562E-06   272   0.639E-03    0.110E-03
DAV:   6    -0.129435644944E+03   -0.47955E-06   -0.25007E-07   202   0.259E-03
  84 F= -.12943564E+03 E0= -.12943564E+03  d E =-.376891E-04
damped:  g(F)=  0.000E+00 g(S)=  0.000E+00 dE (1.order)= 0.000E+00
 bond charge predicted
       N       E                     dE             d eps       ncg     rms          rms(c)
DAV:   1    -0.129435647875E+03   -0.34111E-05   -0.35039E-06   237   0.992E-03    0.599E-04
DAV:   2    -0.129435648529E+03   -0.65389E-06   -0.27648E-07   268   0.285E-03    0.394E-04
DAV:   3    -0.129435649225E+03   -0.69608E-06   -0.46793E-08   204   0.106E-03    0.275E-04
DAV:   4    -0.129435650487E+03   -0.12622E-05   -0.37950E-08   218   0.733E-04    0.103E-04
DAV:   5    -0.129435651135E+03   -0.64775E-06   -0.10127E-08   263   0.505E-04    0.904E-05
DAV:   6    -0.129435652237E+03   -0.11022E-05   -0.47214E-08   264   0.527E-04
  85 F= -.12943565E+03 E0= -.12943565E+03  d E =-.729371E-05
damped:  g(F)=  0.000E+00 g(S)=  0.000E+00 dE (1.order)= 0.000E+00
 bond charge predicted
       N       E                     dE             d eps       ncg     rms          rms(c)
DAV:   1    -0.129435656214E+03   -0.50793E-05   -0.13809E-05   236   0.200E-02    0.939E-04
DAV:   2    -0.129435656495E+03   -0.28042E-06   -0.95715E-07   272   0.547E-03    0.613E-04
DAV:   3    -0.129435656650E+03   -0.15495E-06   -0.10033E-07   214   0.164E-03    0.455E-04
DAV:   4    -0.129435656912E+03   -0.26242E-06   -0.18484E-08   245   0.920E-04    0.138E-04
DAV:   5    -0.129435657048E+03   -0.13565E-06    0.47741E-09   270   0.460E-04    0.812E-05
DAV:   6    -0.129435657138E+03   -0.89910E-07    0.12511E-08   202   0.278E-04
  86 F= -.12943566E+03 E0= -.12943566E+03  d E =-.490038E-05
damped:  g(F)=  0.000E+00 g(S)=  0.000E+00 dE (1.order)= 0.000E+00
 bond charge predicted
       N       E                     dE             d eps       ncg     rms          rms(c)
DAV:   1    -0.129435661295E+03   -0.42469E-05   -0.29725E-05   230   0.294E-02    0.137E-03
DAV:   2    -0.129435661510E+03   -0.21584E-06   -0.20756E-06   191   0.803E-03    0.880E-04
DAV:   3    -0.129435661551E+03   -0.40962E-07   -0.24720E-07   189   0.242E-03    0.658E-04
DAV:   4    -0.129435661581E+03   -0.29990E-07   -0.59852E-08   231   0.134E-03    0.203E-04
DAV:   5    -0.129435661597E+03   -0.15465E-07   -0.69815E-09   167   0.665E-04    0.120E-04
DAV:   6    -0.129435661612E+03   -0.15125E-07    0.10570E-08   188   0.399E-04
  87 F= -.12943566E+03 E0= -.12943566E+03  d E =-.447435E-05
damped:  g(F)=  0.000E+00 g(S)=  0.000E+00 dE (1.order)= 0.000E+00
 bond charge predicted
       N       E                     dE             d eps       ncg     rms          rms(c)
DAV:   1    -0.129435665988E+03   -0.43911E-05   -0.49084E-05   165   0.378E-02    0.172E-03
DAV:   2    -0.129435666284E+03   -0.29647E-06   -0.33866E-06   169   0.103E-02    0.110E-03
DAV:   3    -0.129435666311E+03   -0.26644E-07   -0.41256E-07   164   0.310E-03    0.828E-04
DAV:   4    -0.129435666304E+03    0.71418E-08   -0.10583E-07   243   0.172E-03    0.253E-04
DAV:   5    -0.129435666303E+03    0.54479E-09   -0.20838E-08   164   0.848E-04    0.151E-04
DAV:   6    -0.129435666309E+03   -0.55315E-08    0.71731E-09   164   0.505E-04
  88 F= -.12943567E+03 E0= -.12943567E+03  d E =-.469697E-05
damped:  g(F)=  0.000E+00 g(S)=  0.000E+00 dE (1.order)= 0.000E+00
 bond charge predicted
       N       E                     dE             d eps       ncg     rms          rms(c)
DAV:   1    -0.129435670500E+03   -0.41969E-05   -0.69331E-05   164   0.450E-02    0.198E-03
DAV:   2    -0.129435670914E+03   -0.41363E-06   -0.46944E-06   176   0.122E-02    0.127E-03
DAV:   3    -0.129435670953E+03   -0.39327E-07   -0.57733E-07   164   0.367E-03    0.957E-04
DAV:   4    -0.129435670946E+03    0.77625E-08   -0.15030E-07   186   0.202E-03    0.288E-04
DAV:   5    -0.129435670945E+03    0.29149E-09   -0.34550E-08   164   0.993E-04    0.173E-04
DAV:   6    -0.129435670952E+03   -0.70449E-08    0.32175E-09   164   0.588E-04
  89 F= -.12943567E+03 E0= -.12943567E+03  d E =-.464336E-05
damped:  g(F)=  0.000E+00 g(S)=  0.000E+00 dE (1.order)= 0.000E+00
 bond charge predicted
       N       E                     dE             d eps       ncg     rms          rms(c)
DAV:   1    -0.129435674718E+03   -0.37732E-05   -0.88023E-05   164   0.507E-02    0.216E-03
DAV:   2    -0.129435675237E+03   -0.51828E-06   -0.58130E-06   164   0.137E-02    0.137E-03
DAV:   3    -0.129435675291E+03   -0.54148E-07   -0.71631E-07   164   0.410E-03    0.104E-03
DAV:   4    -0.129435675291E+03    0.26921E-09   -0.18557E-07   164   0.223E-03    0.305E-04
DAV:   5    -0.129435675293E+03   -0.23065E-08   -0.45830E-08   164   0.109E-03    0.185E-04
DAV:   6    -0.129435675303E+03   -0.96725E-08   -0.10312E-10   164   0.640E-04
  90 F= -.12943568E+03 E0= -.12943568E+03  d E =-.435028E-05
damped:  g(F)=  0.000E+00 g(S)=  0.000E+00 dE (1.order)= 0.000E+00
 bond charge predicted
       N       E                     dE             d eps       ncg     rms          rms(c)
DAV:   1    -0.129435679267E+03   -0.39741E-05   -0.12981E-04   196   0.608E-02    0.251E-03
DAV:   2    -0.129435679819E+03   -0.55201E-06   -0.65725E-06   164   0.145E-02    0.157E-03
DAV:   3    -0.129435679874E+03   -0.55296E-07   -0.70518E-07   164   0.447E-03    0.111E-03
DAV:   4    -0.129435679883E+03   -0.88776E-08   -0.17595E-07   164   0.241E-03    0.269E-04
DAV:   5    -0.129435679889E+03   -0.60654E-08   -0.33559E-08   164   0.114E-03    0.177E-04
DAV:   6    -0.129435679901E+03   -0.12186E-07    0.49539E-09   164   0.603E-04
  91 F= -.12943568E+03 E0= -.12943568E+03  d E =-.459885E-05
damped:  g(F)=  0.000E+00 g(S)=  0.000E+00 dE (1.order)= 0.000E+00
 bond charge predicted
       N       E                     dE             d eps       ncg     rms          rms(c)
DAV:   1    -0.129435684503E+03   -0.46135E-05   -0.17986E-04   196   0.708E-02    0.282E-03
DAV:   2    -0.129435685244E+03   -0.74117E-06   -0.86721E-06   164   0.167E-02    0.171E-03
DAV:   3    -0.129435685335E+03   -0.91483E-07   -0.92054E-07   164   0.510E-03    0.122E-03
DAV:   4    -0.129435685372E+03   -0.36521E-07   -0.21958E-07   164   0.269E-03    0.273E-04
DAV:   5    -0.129435685381E+03   -0.92614E-08   -0.47346E-08   164   0.128E-03    0.193E-04
DAV:   6    -0.129435685395E+03   -0.13874E-07    0.98197E-10   164   0.665E-04
  92 F= -.12943569E+03 E0= -.12943569E+03  d E =-.549359E-05
damped:  g(F)=  0.000E+00 g(S)=  0.000E+00 dE (1.order)= 0.000E+00
 bond charge predicted
       N       E                     dE             d eps       ncg     rms          rms(c)
DAV:   1    -0.129435692216E+03   -0.68353E-05   -0.24810E-04   228   0.812E-02    0.316E-03
DAV:   2    -0.129435692854E+03   -0.63730E-06   -0.79598E-06   164   0.153E-02    0.192E-03
DAV:   3    -0.129435692952E+03   -0.98327E-07   -0.76497E-07   164   0.488E-03    0.119E-03
DAV:   4    -0.129435693023E+03   -0.71431E-07   -0.17590E-07   164   0.245E-03    0.216E-04
DAV:   5    -0.129435693036E+03   -0.12519E-07   -0.36603E-08   164   0.120E-03    0.167E-04
DAV:   6    -0.129435693051E+03   -0.14516E-07    0.36054E-09   164   0.592E-04
  93 F= -.12943569E+03 E0= -.12943569E+03  d E =-.765555E-05
damped:  g(F)=  0.000E+00 g(S)=  0.000E+00 dE (1.order)= 0.000E+00
 bond charge predicted
       N       E                     dE             d eps       ncg     rms          rms(c)
DAV:   1    -0.129435703471E+03   -0.10435E-04   -0.34696E-04   270   0.944E-02    0.365E-03
DAV:   2    -0.129435704013E+03   -0.54186E-06   -0.76867E-06   164   0.135E-02    0.224E-03
DAV:   3    -0.129435704138E+03   -0.12508E-06   -0.74569E-07   166   0.454E-03    0.126E-03
DAV:   4    -0.129435704248E+03   -0.10982E-06   -0.17582E-07   233   0.233E-03    0.219E-04
DAV:   5    -0.129435704262E+03   -0.14165E-07   -0.38927E-08   164   0.115E-03    0.148E-04
DAV:   6    -0.129435704270E+03   -0.82687E-08    0.27557E-09   164   0.540E-04
  94 F= -.12943570E+03 E0= -.12943570E+03  d E =-.112198E-04
damped:  g(F)=  0.000E+00 g(S)=  0.000E+00 dE (1.order)= 0.000E+00
 bond charge predicted
       N       E                     dE             d eps       ncg     rms          rms(c)
DAV:   1    -0.129435718509E+03   -0.14247E-04   -0.49384E-04   260   0.113E-01    0.436E-03
DAV:   2    -0.129435719339E+03   -0.82937E-06   -0.11739E-05   168   0.167E-02    0.267E-03
DAV:   3    -0.129435719500E+03   -0.16111E-06   -0.11338E-06   183   0.559E-03    0.154E-03
DAV:   4    -0.129435719646E+03   -0.14663E-06   -0.26823E-07   218   0.287E-03    0.285E-04
DAV:   5    -0.129435719664E+03   -0.17720E-07   -0.66913E-08   164   0.140E-03    0.182E-04
DAV:   6    -0.129435719673E+03   -0.88939E-08   -0.55376E-09   164   0.666E-04
  95 F= -.12943572E+03 E0= -.12943572E+03  d E =-.154026E-04
damped:  g(F)=  0.000E+00 g(S)=  0.000E+00 dE (1.order)= 0.000E+00
 bond charge predicted
       N       E                     dE             d eps       ncg     rms          rms(c)
DAV:   1    -0.129435737060E+03   -0.17396E-04   -0.69296E-04   260   0.134E-01    0.521E-03
DAV:   2    -0.129435738305E+03   -0.12445E-05   -0.17674E-05   191   0.205E-02    0.320E-03
DAV:   3    -0.129435738494E+03   -0.18921E-06   -0.17013E-06   164   0.682E-03    0.187E-03
DAV:   4    -0.129435738661E+03   -0.16679E-06   -0.40939E-07   239   0.353E-03    0.371E-04
DAV:   5    -0.129435738675E+03   -0.14818E-07   -0.10903E-07   164   0.173E-03    0.228E-04
DAV:   6    -0.129435738685E+03   -0.93714E-08   -0.18147E-08   164   0.829E-04
  96 F= -.12943574E+03 E0= -.12943574E+03  d E =-.190117E-04
damped:  g(F)=  0.000E+00 g(S)=  0.000E+00 dE (1.order)= 0.000E+00
 bond charge predicted
       N       E                     dE             d eps       ncg     rms          rms(c)
DAV:   1    -0.129435758013E+03   -0.19337E-04   -0.88715E-04   260   0.151E-01    0.581E-03
DAV:   2    -0.129435759625E+03   -0.16128E-05   -0.22889E-05   174   0.230E-02    0.356E-03
DAV:   3    -0.129435759845E+03   -0.21977E-06   -0.21746E-06   164   0.764E-03    0.210E-03
DAV:   4    -0.129435760052E+03   -0.20681E-06   -0.52089E-07   230   0.395E-03    0.416E-04
DAV:   5    -0.129435760077E+03   -0.25441E-07   -0.14526E-07   164   0.193E-03    0.255E-04
DAV:   6    -0.129435760100E+03   -0.22772E-07   -0.29687E-08   164   0.931E-04
  97 F= -.12943576E+03 E0= -.12943576E+03  d E =-.214155E-04
damped:  g(F)=  0.000E+00 g(S)=  0.000E+00 dE (1.order)= 0.000E+00
 bond charge predicted
       N       E                     dE             d eps       ncg     rms          rms(c)
DAV:   1    -0.129435782717E+03   -0.22640E-04   -0.10518E-03   260   0.162E-01    0.616E-03
DAV:   2    -0.129435784610E+03   -0.18928E-05   -0.26150E-05   164   0.240E-02    0.376E-03
DAV:   3    -0.129435784895E+03   -0.28515E-06   -0.24458E-06   164   0.796E-03    0.222E-03
DAV:   4    -0.129435785209E+03   -0.31325E-06   -0.57811E-07   164   0.410E-03    0.430E-04
DAV:   5    -0.129435785254E+03   -0.45684E-07   -0.16841E-07   164   0.201E-03    0.265E-04
DAV:   6    -0.129435785284E+03   -0.30085E-07   -0.37588E-08   164   0.960E-04
  98 F= -.12943579E+03 E0= -.12943579E+03  d E =-.251841E-04
damped:  g(F)=  0.000E+00 g(S)=  0.000E+00 dE (1.order)= 0.000E+00
 bond charge predicted
       N       E                     dE             d eps       ncg     rms          rms(c)
DAV:   1    -0.129435813922E+03   -0.28668E-04   -0.12842E-03   292   0.178E-01    0.671E-03
DAV:   2    -0.129435815887E+03   -0.19644E-05   -0.27493E-05   200   0.229E-02    0.425E-03
DAV:   3    -0.129435816173E+03   -0.28598E-06   -0.23548E-06   164   0.729E-03    0.249E-03
DAV:   4    -0.129435816594E+03   -0.42119E-06   -0.60186E-07   164   0.397E-03    0.469E-04
DAV:   5    -0.129435816639E+03   -0.45297E-07   -0.18441E-07   164   0.193E-03    0.291E-04
DAV:   6    -0.129435816660E+03   -0.21045E-07   -0.43720E-08   164   0.905E-04
  99 F= -.12943582E+03 E0= -.12943582E+03  d E =-.313761E-04
damped:  g(F)=  0.000E+00 g(S)=  0.000E+00 dE (1.order)= 0.000E+00
 bond charge predicted
       N       E                     dE             d eps       ncg     rms          rms(c)
DAV:   1    -0.129435851134E+03   -0.34494E-04   -0.17313E-03   324   0.211E-01    0.811E-03
DAV:   2    -0.129435853852E+03   -0.27182E-05   -0.38234E-05   261   0.275E-02    0.527E-03
DAV:   3    -0.129435854069E+03   -0.21710E-06   -0.22823E-06   167   0.704E-03    0.320E-03
DAV:   4    -0.129435854567E+03   -0.49817E-06   -0.95820E-07   247   0.505E-03    0.662E-04
DAV:   5    -0.129435854590E+03   -0.22301E-07   -0.28169E-07   164   0.247E-03    0.412E-04
DAV:   6    -0.129435854612E+03   -0.22424E-07   -0.72668E-08   164   0.112E-03
 100 F= -.12943585E+03 E0= -.12943585E+03  d E =-.379516E-04
damped:  g(F)=  0.000E+00 g(S)=  0.000E+00 dE (1.order)= 0.000E+00
 bond charge predicted
       N       E                     dE             d eps       ncg     rms          rms(c)
DAV:   1    -0.129435892732E+03   -0.38143E-04   -0.24580E-03   324   0.254E-01    0.996E-03
DAV:   2    -0.129435896377E+03   -0.36450E-05   -0.52928E-05   269   0.331E-02    0.647E-03
DAV:   3    -0.129435896648E+03   -0.27063E-06   -0.33058E-06   222   0.860E-03    0.387E-03
DAV:   4    -0.129435897255E+03   -0.60663E-06   -0.14064E-06   247   0.612E-03    0.815E-04
DAV:   5    -0.129435897286E+03   -0.31550E-07   -0.40308E-07   164   0.300E-03    0.488E-04
DAV:   6    -0.129435897322E+03   -0.35891E-07   -0.10856E-07   164   0.136E-03
 101 F= -.12943590E+03 E0= -.12943590E+03  d E =-.427101E-04
damped:  g(F)=  0.000E+00 g(S)=  0.000E+00 dE (1.order)= 0.000E+00
 bond charge predicted
       N       E                     dE             d eps       ncg     rms          rms(c)
DAV:   1    -0.129435941162E+03   -0.43876E-04   -0.35344E-03   328   0.305E-01    0.119E-02
DAV:   2    -0.129435946058E+03   -0.48961E-05   -0.71029E-05   233   0.385E-02    0.761E-03
DAV:   3    -0.129435946580E+03   -0.52183E-06   -0.45261E-06   172   0.101E-02    0.434E-03
DAV:   4    -0.129435947469E+03   -0.88884E-06   -0.17518E-06   243   0.673E-03    0.823E-04
DAV:   5    -0.129435947544E+03   -0.75203E-07   -0.51221E-07   164   0.327E-03    0.510E-04
DAV:   6    -0.129435947598E+03   -0.53643E-07   -0.13999E-07   165   0.145E-03
 102 F= -.12943595E+03 E0= -.12943595E+03  d E =-.502758E-04
damped:  g(F)=  0.000E+00 g(S)=  0.000E+00 dE (1.order)= 0.000E+00
 bond charge predicted
       N       E                     dE             d eps       ncg     rms          rms(c)
DAV:   1    -0.129436000257E+03   -0.52713E-04   -0.53101E-03   337   0.376E-01    0.149E-02
DAV:   2    -0.129436007609E+03   -0.73519E-05   -0.10627E-04   269   0.477E-02    0.932E-03
DAV:   3    -0.129436008431E+03   -0.82201E-06   -0.69001E-06   255   0.126E-02    0.519E-03
DAV:   4    -0.129436009665E+03   -0.12340E-05   -0.25490E-06   271   0.813E-03    0.907E-04
DAV:   5    -0.129436009776E+03   -0.11032E-06   -0.73833E-07   192   0.383E-03    0.572E-04
DAV:   6    -0.129436009822E+03   -0.46923E-07   -0.20813E-07   172   0.173E-03
 103 F= -.12943601E+03 E0= -.12943601E+03  d E =-.622247E-04
damped:  g(F)=  0.000E+00 g(S)=  0.000E+00 dE (1.order)= 0.000E+00
 bond charge predicted
       N       E                     dE             d eps       ncg     rms          rms(c)
DAV:   1    -0.129436068182E+03   -0.58406E-04   -0.78740E-03   334   0.459E-01    0.183E-02
DAV:   2    -0.129436078999E+03   -0.10817E-04   -0.15801E-04   268   0.584E-02    0.114E-02
DAV:   3    -0.129436080116E+03   -0.11171E-05   -0.10353E-05   238   0.154E-02    0.633E-03
DAV:   4    -0.129436081813E+03   -0.16971E-05   -0.38189E-06   254   0.994E-03    0.111E-03
DAV:   5    -0.129436081953E+03   -0.14039E-06   -0.10999E-06   210   0.468E-03    0.689E-04
DAV:   6    -0.129436082016E+03   -0.62884E-07   -0.31479E-07   173   0.213E-03
 104 F= -.12943608E+03 E0= -.12943608E+03  d E =-.721938E-04
damped:  g(F)=  0.000E+00 g(S)=  0.000E+00 dE (1.order)= 0.000E+00
 bond charge predicted
       N       E                     dE             d eps       ncg     rms          rms(c)
DAV:   1    -0.129436151516E+03   -0.69562E-04   -0.10847E-02   328   0.537E-01    0.213E-02
DAV:   2    -0.129436167077E+03   -0.15562E-04   -0.22226E-04   290   0.675E-02    0.136E-02
DAV:   3    -0.129436168160E+03   -0.10822E-05   -0.10356E-05   227   0.165E-02    0.772E-03
DAV:   4    -0.129436170951E+03   -0.27913E-05   -0.45653E-06   245   0.117E-02    0.143E-03
DAV:   5    -0.129436171107E+03   -0.15650E-06   -0.12021E-06   201   0.544E-03    0.833E-04
DAV:   6    -0.129436171194E+03   -0.86269E-07   -0.25448E-07   164   0.221E-03
 105 F= -.12943617E+03 E0= -.12943617E+03  d E =-.891774E-04
damped:  g(F)=  0.000E+00 g(S)=  0.000E+00 dE (1.order)= 0.000E+00
 bond charge predicted
       N       E                     dE             d eps       ncg     rms          rms(c)
DAV:   1    -0.129436246302E+03   -0.75194E-04   -0.15465E-02   329   0.639E-01    0.252E-02
DAV:   2    -0.129436270561E+03   -0.24259E-04   -0.34043E-04   332   0.816E-02    0.167E-02
DAV:   3    -0.129436270693E+03   -0.13238E-06   -0.95095E-06   248   0.173E-02    0.990E-03
DAV:   4    -0.129436275279E+03   -0.45854E-05   -0.67837E-06   232   0.145E-02    0.187E-03
DAV:   5    -0.129436275437E+03   -0.15869E-06   -0.17569E-06   224   0.669E-03    0.116E-03
DAV:   6    -0.129436275562E+03   -0.12475E-06   -0.32190E-07   168   0.249E-03
 106 F= -.12943628E+03 E0= -.12943628E+03  d E =-.104369E-03
damped:  g(F)=  0.000E+00 g(S)=  0.000E+00 dE (1.order)= 0.000E+00
 reached required accuracy - stopping structural energy minimisation
