unknown system                          
           1
    30.000000    0.000000    0.000000
     0.000000   30.000000    0.000000
     0.000000    0.000000   30.000000
   H    C    N    O 
  12   6   2   2
Direct configuration=     1
   0.37843510  0.53819820  0.49940158
   0.37552291  0.48167745  0.48168670
   0.38457210  0.49406918  0.53897837
   0.44779435  0.44563274  0.52353835
   0.51931700  0.42988249  0.52231313
   0.55809874  0.43539960  0.45033340
   0.51811798  0.47438949  0.42973565
   0.50177249  0.41869222  0.44277463
   0.51547428  0.54576444  0.49352838
   0.58005463  0.57109365  0.56126748
   0.60928094  0.56128880  0.51077904
   0.56590781  0.60225581  0.51244374
   0.39225293  0.50480820  0.50472559
   0.44192065  0.50608714  0.49449506
   0.51340083  0.45958186  0.50163003
   0.52328770  0.44660128  0.45300559
   0.54888288  0.49275764  0.52006101
   0.57634239  0.56944139  0.52476907
   0.46595131  0.47058455  0.50951356
   0.54320439  0.53662349  0.51157856
   0.45866408  0.53766810  0.47347209
   0.58174555  0.47750334  0.53996805
Direct configuration=     2
   0.37845420  0.53819902  0.49938566
   0.37550385  0.48166856  0.48165318
   0.38464168  0.49405287  0.53892785
   0.44782627  0.44564533  0.52356116
   0.51930329  0.42989154  0.52223329
   0.55810519  0.43547399  0.45028528
   0.51812062  0.47448475  0.42975290
   0.50177516  0.41876184  0.44268752
   0.51547323  0.54576154  0.49357195
   0.57998688  0.57103621  0.56133811
   0.60927483  0.56126142  0.51089195
   0.56589930  0.60223926  0.51252495
   0.39227983  0.50479722  0.50472333
   0.44192866  0.50607541  0.49444261
   0.51340493  0.45953272  0.50162947
   0.52330114  0.44667373  0.45295153
   0.54888184  0.49276167  0.52005889
   0.57633180  0.56939618  0.52485749
   0.46593839  0.47056970  0.50947554
   0.54317186  0.53658631  0.51158238
   0.45869939  0.53768474  0.47347816
   0.58169874  0.47744707  0.53998586
Direct configuration=     3
   0.37848543  0.53819266  0.49936587
   0.37548448  0.48166622  0.48161698
   0.38474054  0.49402180  0.53887724
   0.44786303  0.44565753  0.52360194
   0.51929050  0.42986913  0.52214363
   0.55811783  0.43558207  0.45021436
   0.51812188  0.47463413  0.42977354
   0.50178456  0.41887012  0.44256249
   0.51545050  0.54576110  0.49362233
   0.57988836  0.57095032  0.56145021
   0.60926829  0.56121867  0.51105326
   0.56589107  0.60220260  0.51264696
   0.39230898  0.50478607  0.50467539
   0.44194482  0.50606147  0.49437489
   0.51340121  0.45952175  0.50158888
   0.52331112  0.44675708  0.45289310
   0.54885931  0.49272372  0.52005532
   0.57629516  0.56934072  0.52496273
   0.46593992  0.47054822  0.50941474
   0.54316678  0.53655790  0.51160692
   0.45874710  0.53770469  0.47348454
   0.58164021  0.47737313  0.54001376
Direct configuration=     4
   0.37852801  0.53817925  0.49934346
   0.37546727  0.48167193  0.48158104
   0.38486620  0.49397595  0.53883089
   0.44790321  0.44567168  0.52366190
   0.51928033  0.42981189  0.52205253
   0.55813694  0.43571985  0.45012418
   0.51812099  0.47483126  0.42979918
   0.50180024  0.41901327  0.44240605
   0.51540887  0.54576163  0.49367919
   0.57976252  0.57083824  0.56159790
   0.60925989  0.56116201  0.51125497
   0.56588310  0.60214584  0.51280365
   0.39233789  0.50477392  0.50457625
   0.44197069  0.50604582  0.49429968
   0.51338870  0.45955356  0.50150492
   0.52331553  0.44684961  0.45283265
   0.54881562  0.49264709  0.52005260
   0.57623755  0.56928085  0.52508231
   0.46595577  0.47052199  0.50933249
   0.54318352  0.53653452  0.51164605
   0.45880500  0.53772579  0.47348780
   0.58157328  0.47728515  0.54004943
Direct configuration=     5
   0.37857905  0.53816518  0.49931686
   0.37544790  0.48167791  0.48153663
   0.38502098  0.49392069  0.53877239
   0.44795409  0.44569874  0.52373913
   0.51926861  0.42974546  0.52194671
   0.55815999  0.43588600  0.45001867
   0.51811853  0.47506348  0.42983660
   0.50181715  0.41918400  0.44222279
   0.51536650  0.54575772  0.49375300
   0.57961059  0.57070168  0.56176956
   0.60924502  0.56109429  0.51149263
   0.56587140  0.60207810  0.51298646
   0.39237339  0.50475504  0.50445607
   0.44200675  0.50602935  0.49421829
   0.51337402  0.45958050  0.50140705
   0.52331913  0.44696922  0.45275633
   0.54876689  0.49257072  0.52005471
   0.57618151  0.56921257  0.52523016
   0.46596910  0.47049272  0.50923391
   0.54318417  0.53649058  0.51167832
   0.45887295  0.53774659  0.47348450
   0.58149338  0.47718060  0.54008836
Direct configuration=     6
   0.37863438  0.53815625  0.49928484
   0.37542110  0.48167305  0.48147251
   0.38520229  0.49386389  0.53868308
   0.44802009  0.44574828  0.52382996
   0.51925052  0.42969996  0.52181269
   0.55818152  0.43607547  0.44990416
   0.51811444  0.47531495  0.42988817
   0.50182999  0.41937084  0.44202142
   0.51533379  0.54574564  0.49384598
   0.57943811  0.57054589  0.56195081
   0.60922218  0.56101915  0.51175426
   0.56585248  0.60201110  0.51318170
   0.39242411  0.50472868  0.50435829
   0.44204699  0.50601558  0.49412982
   0.51336618  0.45955238  0.50133385
   0.52332948  0.44712629  0.45265452
   0.54872721  0.49252310  0.52006234
   0.57613998  0.56912742  0.52541293
   0.46596633  0.47046101  0.50912838
   0.54315124  0.53641598  0.51169231
   0.45894921  0.53776465  0.47347139
   0.58139954  0.47706165  0.54012577
Direct configuration=     7
   0.37870102  0.53814850  0.49924517
   0.37538758  0.48165429  0.48137823
   0.38542879  0.49379883  0.53855211
   0.44810229  0.44583018  0.52395314
   0.51922495  0.42966582  0.52164087
   0.55820033  0.43631094  0.44976902
   0.51810447  0.47561982  0.42995545
   0.50184109  0.41959617  0.44178324
   0.51529161  0.54572371  0.49395707
   0.57922682  0.57035185  0.56216384
   0.60919319  0.56092581  0.51206034
   0.56582451  0.60193529  0.51340687
   0.39249746  0.50469944  0.50427611
   0.44208864  0.50600386  0.49402394
   0.51336357  0.45947344  0.50128209
   0.52334998  0.44732833  0.45252555
   0.54868416  0.49247367  0.52007283
   0.57608507  0.56900818  0.52563522
   0.46595816  0.47042274  0.50900779
   0.54311708  0.53632826  0.51170535
   0.45904099  0.53777914  0.47343813
   0.58128940  0.47692297  0.54016682
Direct configuration=     8
   0.37878334  0.53812929  0.49920477
   0.37537191  0.48164217  0.48127517
   0.38568892  0.49371271  0.53842092
   0.44817728  0.44593679  0.52412874
   0.51920306  0.42957840  0.52147486
   0.55822186  0.43659294  0.44960969
   0.51808198  0.47600099  0.43002718
   0.50186084  0.41987290  0.44151115
   0.51521549  0.54569290  0.49406812
   0.57897803  0.57011587  0.56242196
   0.60916392  0.56080967  0.51240352
   0.56579430  0.60182923  0.51366648
   0.39257333  0.50467807  0.50414096
   0.44213789  0.50599171  0.49390133
   0.51335096  0.45944996  0.50119184
   0.52336446  0.44753139  0.45240573
   0.54861378  0.49235632  0.52008309
   0.57598418  0.56887326  0.52585489
   0.46598012  0.47038168  0.50887265
   0.54313170  0.53626496  0.51174330
   0.45914059  0.53778236  0.47337443
   0.58118327  0.47677770  0.54021844
Direct configuration=     9
   0.37887665  0.53810681  0.49916587
   0.37539770  0.48165102  0.48117166
   0.38596967  0.49360107  0.53830336
   0.44824297  0.44608489  0.52436601
   0.51918365  0.42942752  0.52131395
   0.55825655  0.43692352  0.44941960
   0.51804763  0.47644611  0.43011768
   0.50188666  0.42019988  0.44120033
   0.51514486  0.54563936  0.49419806
   0.57868925  0.56983518  0.56270868
   0.60912321  0.56067275  0.51278906
   0.56575896  0.60169262  0.51395914
   0.39264535  0.50464865  0.50393462
   0.44221927  0.50596797  0.49375228
   0.51333232  0.45947335  0.50105931
   0.52336133  0.44776851  0.45228700
   0.54854693  0.49223152  0.52010082
   0.57588516  0.56874147  0.52610005
   0.46600640  0.47034889  0.50874111
   0.54310093  0.53615124  0.51176704
   0.45924224  0.53776568  0.47326413
   0.58108353  0.47662330  0.54027948
Direct configuration=    10
   0.37896649  0.53810276  0.49912181
   0.37543969  0.48164029  0.48101926
   0.38625688  0.49349096  0.53812805
   0.44831759  0.44629625  0.52464313
   0.51914570  0.42932548  0.52107940
   0.55828504  0.43730180  0.44920275
   0.51800916  0.47690765  0.43024054
   0.50190333  0.42055236  0.44085103
   0.51507742  0.54556213  0.49433119
   0.57836743  0.56952122  0.56299348
   0.60906687  0.56052132  0.51321211
   0.56570802  0.60156485  0.51426674
   0.39276393  0.50460775  0.50381408
   0.44228579  0.50593338  0.49356546
   0.51333836  0.45934987  0.50101413
   0.52337318  0.44810370  0.45210804
   0.54852091  0.49214824  0.52012972
   0.57579414  0.56855422  0.52640334
   0.46600011  0.47032383  0.50864185
   0.54304620  0.53599380  0.51179787
   0.45935634  0.53773648  0.47309161
   0.58097869  0.47646304  0.54034370
Direct configuration=    11
   0.37906670  0.53807446  0.49908613
   0.37552745  0.48163719  0.48084265
   0.38651551  0.49336390  0.53795848
   0.44835558  0.44653796  0.52498272
   0.51911146  0.42913778  0.52083702
   0.55829701  0.43774194  0.44894078
   0.51795312  0.47746538  0.43034587
   0.50194319  0.42097443  0.44045504
   0.51498812  0.54545453  0.49443810
   0.57801754  0.56917476  0.56332322
   0.60901178  0.56034555  0.51367629
   0.56565708  0.60139768  0.51461677
   0.39287837  0.50460783  0.50367409
   0.44235978  0.50592321  0.49335027
   0.51333075  0.45930853  0.50091311
   0.52338905  0.44838569  0.45196883
   0.54845524  0.49193387  0.52016380
   0.57563650  0.56835065  0.52668589
   0.46606071  0.47030875  0.50856298
   0.54305310  0.53592375  0.51188340
   0.45945784  0.53764820  0.47284781
   0.58093543  0.47630538  0.54044609
Direct configuration=    12
   0.37915460  0.53806560  0.49905758
   0.37568256  0.48168088  0.48067494
   0.38672173  0.49322314  0.53781302
   0.44840602  0.44684346  0.52534192
   0.51907146  0.42890116  0.52055334
   0.55834167  0.43821891  0.44863147
   0.51790060  0.47801884  0.43049334
   0.50198147  0.42142116  0.44000377
   0.51497706  0.54531447  0.49455834
   0.57765068  0.56881463  0.56366442
   0.60893723  0.56015635  0.51418870
   0.56560118  0.60121913  0.51500247
   0.39297530  0.50456472  0.50346602
   0.44245770  0.50582960  0.49320724
   0.51333133  0.45923596  0.50080309
   0.52336727  0.44878726  0.45177940
   0.54849910  0.49186305  0.52025717
   0.57554962  0.56819577  0.52704377
   0.46606874  0.47033124  0.50852131
   0.54289618  0.53560392  0.51193734
   0.45957721  0.53756095  0.47247319
   0.58085268  0.47615129  0.54052756
Direct configuration=    13
   0.37915457  0.53806530  0.49905724
   0.37568051  0.48167409  0.48066102
   0.38671131  0.49322562  0.53780163
   0.44840573  0.44684718  0.52534854
   0.51906916  0.42890164  0.52054204
   0.55833486  0.43822767  0.44862633
   0.51789768  0.47803024  0.43049005
   0.50198256  0.42142742  0.43999647
   0.51496248  0.54530779  0.49454219
   0.57764968  0.56881487  0.56367072
   0.60893820  0.56015310  0.51419192
   0.56559696  0.60122436  0.51500384
   0.39298315  0.50457174  0.50349196
   0.44246747  0.50588008  0.49317833
   0.51333751  0.45923335  0.50081285
   0.52337315  0.44878217  0.45177891
   0.54846423  0.49181643  0.52024254
   0.57552383  0.56816606  0.52703986
   0.46608371  0.47032419  0.50853015
   0.54294571  0.53566833  0.51196500
   0.45955710  0.53751405  0.47248219
   0.58088181  0.47614581  0.54054563
Direct configuration=    14
   0.37915318  0.53806507  0.49905756
   0.37568181  0.48166631  0.48063803
   0.38668875  0.49322861  0.53778526
   0.44840537  0.44685613  0.52536328
   0.51906558  0.42889853  0.52052034
   0.55832437  0.43824503  0.44861467
   0.51789212  0.47805054  0.43048626
   0.50198421  0.42143990  0.43998150
   0.51495060  0.54529335  0.49451813
   0.57764808  0.56881552  0.56368202
   0.60893768  0.56014680  0.51419995
   0.56558983  0.60122994  0.51500893
   0.39299582  0.50458410  0.50352918
   0.44247092  0.50592661  0.49315457
   0.51334587  0.45922633  0.50082748
   0.52338155  0.44877835  0.45177622
   0.54842903  0.49175007  0.52023125
   0.57548960  0.56812655  0.52703941
   0.46610734  0.47032343  0.50854476
   0.54300526  0.53574926  0.51200374
   0.45953877  0.53745974  0.47247017
   0.58091564  0.47614134  0.54056669
Direct configuration=    15
   0.37915273  0.53806527  0.49905789
   0.37568396  0.48166798  0.48063806
   0.38668629  0.49322811  0.53778630
   0.44840577  0.44685758  0.52536464
   0.51906559  0.42889653  0.52051890
   0.55832488  0.43824645  0.44861310
   0.51789184  0.47805151  0.43048689
   0.50198425  0.42144106  0.43997991
   0.51495532  0.54529198  0.49451893
   0.57764798  0.56881556  0.56368277
   0.60893676  0.56014637  0.51420144
   0.56558979  0.60122856  0.51501040
   0.39299524  0.50458410  0.50352672
   0.44246779  0.50591544  0.49316193
   0.51334526  0.45922550  0.50082646
   0.52338081  0.44878045  0.45177530
   0.54843664  0.49175536  0.52023559
   0.57549287  0.56813057  0.52704196
   0.46610669  0.47032670  0.50854550
   0.54299654  0.53573840  0.51200137
   0.45954297  0.53746581  0.47246106
   0.58091140  0.47614223  0.54056425
Direct configuration=    16
   0.37915190  0.53806568  0.49905853
   0.37568816  0.48167120  0.48063794
   0.38668130  0.49322715  0.53778817
   0.44840665  0.44686052  0.52536737
   0.51906555  0.42889255  0.52051592
   0.55832580  0.43824935  0.44860992
   0.51789125  0.47805362  0.43048810
   0.50198435  0.42144343  0.43997666
   0.51496409  0.54528923  0.49452014
   0.57764771  0.56881562  0.56368439
   0.60893498  0.56014545  0.51420444
   0.56558963  0.60122595  0.51501333
   0.39299414  0.50458407  0.50352228
   0.44246270  0.50589604  0.49317477
   0.51334426  0.45922397  0.50082454
   0.52337936  0.44878454  0.45177350
   0.54845027  0.49176506  0.52024344
   0.57549874  0.56813782  0.52704679
   0.46610556  0.47033262  0.50854730
   0.54298072  0.53571843  0.51199744
   0.45955010  0.53747562  0.47244426
   0.58090415  0.47614359  0.54056016
Direct configuration=    17
   0.37915076  0.53806635  0.49905941
   0.37569438  0.48167582  0.48063727
   0.38667341  0.49322579  0.53779049
   0.44840816  0.44686511  0.52537160
   0.51906534  0.42888644  0.52051109
   0.55832700  0.43825407  0.44860495
   0.51789026  0.47805732  0.43048978
   0.50198457  0.42144729  0.43997139
   0.51497573  0.54528492  0.49452085
   0.57764717  0.56881565  0.56368725
   0.60893243  0.56014393  0.51420916
   0.56558917  0.60122234  0.51501782
   0.39299252  0.50458395  0.50351676
   0.44245782  0.50587402  0.49318951
   0.51334331  0.45922204  0.50082184
   0.52337725  0.44879061  0.45177079
   0.54846694  0.49177755  0.52025325
   0.57550591  0.56814677  0.52705362
   0.46610436  0.47034004  0.50855088
   0.54296085  0.53569226  0.51199362
   0.45955777  0.53748460  0.47242214
   0.58089623  0.47614464  0.54055592
Direct configuration=    18
   0.37914951  0.53806731  0.49906044
   0.37570239  0.48168148  0.48063538
   0.38666225  0.49322412  0.53779256
   0.44841046  0.44687145  0.52537754
   0.51906479  0.42887814  0.52050398
   0.55832821  0.43826103  0.44859793
   0.51788873  0.47806332  0.43049175
   0.50198500  0.42145301  0.43996365
   0.51498815  0.54527885  0.49451966
   0.57764619  0.56881557  0.56369189
   0.60892933  0.56014160  0.51421584
   0.56558815  0.60121825  0.51502393
   0.39299066  0.50458375  0.50351161
   0.44245613  0.50585784  0.49320070
   0.51334313  0.45922020  0.50081872
   0.52337465  0.44879847  0.45176717
   0.54848178  0.49178956  0.52026251
   0.57551198  0.56815468  0.52706186
   0.46610386  0.47034717  0.50855721
   0.54294224  0.53566546  0.51199264
   0.45956248  0.53748602  0.47239852
   0.58089130  0.47614424  0.54055391
Direct configuration=    19
   0.37914949  0.53806737  0.49906045
   0.37570267  0.48168162  0.48063508
   0.38666165  0.49322408  0.53779244
   0.44841059  0.44687174  0.52537787
   0.51906472  0.42887776  0.52050352
   0.55832818  0.43826148  0.44859754
   0.51788863  0.47806381  0.43049177
   0.50198505  0.42145339  0.43996317
   0.51498811  0.54527852  0.49451921
   0.57764609  0.56881554  0.56369227
   0.60892926  0.56014144  0.51421621
   0.56558802  0.60121821  0.51502423
   0.39299065  0.50458376  0.50351185
   0.44245684  0.50585935  0.49319973
   0.51334332  0.45922024  0.50081869
   0.52337460  0.44879876  0.45176700
   0.54848108  0.49178903  0.52026224
   0.57551155  0.56815422  0.52706207
   0.46610409  0.47034701  0.50855774
   0.54294295  0.53566598  0.51199339
   0.45956176  0.53748429  0.47239847
   0.58089209  0.47614392  0.54055447
Direct configuration=    20
   0.37914947  0.53806747  0.49906047
   0.37570324  0.48168189  0.48063446
   0.38666044  0.49322400  0.53779218
   0.44841084  0.44687231  0.52537851
   0.51906458  0.42887698  0.52050257
   0.55832812  0.43826241  0.44859673
   0.51788842  0.47806483  0.43049180
   0.50198515  0.42145417  0.43996214
   0.51498804  0.54527785  0.49451832
   0.57764585  0.56881545  0.56369307
   0.60892912  0.56014111  0.51421703
   0.56558776  0.60121812  0.51502487
   0.39299065  0.50458378  0.50351230
   0.44245822  0.50586227  0.49319785
   0.51334369  0.45922033  0.50081861
   0.52337450  0.44879937  0.45176663
   0.54847974  0.49178796  0.52026173
   0.57551070  0.56815330  0.52706256
   0.46610454  0.47034672  0.50855876
   0.54294433  0.53566697  0.51199488
   0.45956037  0.53748092  0.47239834
   0.58089360  0.47614328  0.54055559
Direct configuration=    21
   0.37914943  0.53806762  0.49906049
   0.37570411  0.48168231  0.48063352
   0.38665863  0.49322386  0.53779177
   0.44841120  0.44687313  0.52537941
   0.51906437  0.42887577  0.52050105
   0.55832804  0.43826386  0.44859546
   0.51788814  0.47806644  0.43049181
   0.50198532  0.42145542  0.43996051
   0.51498800  0.54527684  0.49451705
   0.57764544  0.56881528  0.56369436
   0.60892891  0.56014060  0.51421838
   0.56558738  0.60121797  0.51502594
   0.39299065  0.50458383  0.50351294
   0.44246015  0.50586639  0.49319518
   0.51334422  0.45922043  0.50081845
   0.52337438  0.44880035  0.45176603
   0.54847784  0.49178635  0.52026106
   0.57550946  0.56815194  0.52706339
   0.46610522  0.47034632  0.50856023
   0.54294630  0.53566837  0.51199711
   0.45955842  0.53747610  0.47239802
   0.58089574  0.47614233  0.54055724
Direct configuration=    22
   0.37914938  0.53806781  0.49906051
   0.37570529  0.48168288  0.48063223
   0.38665622  0.49322364  0.53779122
   0.44841167  0.44687416  0.52538054
   0.51906408  0.42887412  0.52049891
   0.55832796  0.43826589  0.44859366
   0.51788779  0.47806873  0.43049180
   0.50198557  0.42145718  0.43995819
   0.51498806  0.54527549  0.49451545
   0.57764482  0.56881500  0.56369623
   0.60892863  0.56013989  0.51422039
   0.56558688  0.60121771  0.51502750
   0.39299067  0.50458390  0.50351373
   0.44246250  0.50587139  0.49319194
   0.51334490  0.45922052  0.50081818
   0.52337424  0.44880174  0.45176512
   0.54847555  0.49178418  0.52026033
   0.57550786  0.56815017  0.52706467
   0.46610612  0.47034588  0.50856206
   0.54294873  0.53567006  0.51200003
   0.45955607  0.53747010  0.47239734
   0.58089837  0.47614107  0.54055938
Direct configuration=    23
   0.37914929  0.53806804  0.49906052
   0.37570680  0.48168361  0.48063057
   0.38665320  0.49322334  0.53779050
   0.44841221  0.44687536  0.52538188
   0.51906373  0.42887197  0.52049605
   0.55832790  0.43826857  0.44859127
   0.51788739  0.47807176  0.43049174
   0.50198592  0.42145953  0.43995506
   0.51498833  0.54527377  0.49451359
   0.57764393  0.56881455  0.56369877
   0.60892827  0.56013896  0.51422317
   0.56558626  0.60121732  0.51502967
   0.39299073  0.50458403  0.50351462
   0.44246509  0.50587685  0.49318837
   0.51334570  0.45922056  0.50081775
   0.52337408  0.44880362  0.45176385
   0.54847308  0.49178143  0.52025969
   0.57550597  0.56814803  0.52706652
   0.46610725  0.47034550  0.50856419
   0.54295144  0.53567191  0.51200360
   0.45955349  0.53746325  0.47239608
   0.58090129  0.47613953  0.54056193
Direct configuration=    24
   0.37914917  0.53806830  0.49906051
   0.37570865  0.48168451  0.48062851
   0.38664957  0.49322294  0.53778961
   0.44841280  0.44687670  0.52538337
   0.51906332  0.42886931  0.52049240
   0.55832787  0.43827196  0.44858823
   0.51788697  0.47807562  0.43049161
   0.50198638  0.42146253  0.43995105
   0.51498891  0.54527168  0.49451157
   0.57764272  0.56881390  0.56370205
   0.60892784  0.56013780  0.51422687
   0.56558555  0.60121675  0.51503255
   0.39299085  0.50458424  0.50351553
   0.44246769  0.50588224  0.49318481
   0.51334659  0.45922050  0.50081713
   0.52337394  0.44880606  0.45176215
   0.54847069  0.49177814  0.52025930
   0.57550385  0.56814558  0.52706910
   0.46610859  0.47034528  0.50856651
   0.54295421  0.53567373  0.51200773
   0.45955096  0.53745602  0.47239399
   0.58090426  0.47613773  0.54056480
Direct configuration=    25
   0.37914899  0.53806862  0.49906049
   0.37571112  0.48168571  0.48062580
   0.38664488  0.49322237  0.53778846
   0.44841351  0.44687833  0.52538523
   0.51906280  0.42886578  0.52048745
   0.55832787  0.43827651  0.44858412
   0.51788646  0.47808084  0.43049140
   0.50198701  0.42146660  0.43994561
   0.51499005  0.54526893  0.49450922
   0.57764101  0.56881295  0.56370653
   0.60892725  0.56013625  0.51423200
   0.56558465  0.60121589  0.51503654
   0.39299106  0.50458458  0.50351652
   0.44247029  0.50588743  0.49318130
   0.51334762  0.45922028  0.50081622
   0.52337380  0.44880939  0.45175977
   0.54846848  0.49177395  0.52025933
   0.57550135  0.56814264  0.52707280
   0.46611030  0.47034538  0.50856922
   0.54295705  0.53567548  0.51201282
   0.45954847  0.53744807  0.47239037
   0.58090735  0.47613555  0.54056819
Direct configuration=    26
   0.37914872  0.53806901  0.49906047
   0.37571432  0.48168730  0.48062232
   0.38663892  0.49322159  0.53778702
   0.44841433  0.44688030  0.52538761
   0.51906216  0.42886123  0.52048098
   0.55832790  0.43828244  0.44857874
   0.51788585  0.47808763  0.43049110
   0.50198784  0.42147193  0.43993851
   0.51499205  0.54526539  0.49450656
   0.57763875  0.56881167  0.56371237
   0.60892646  0.56013425  0.51423881
   0.56558354  0.60121464  0.51504184
   0.39299139  0.50458511  0.50351753
   0.44247254  0.50589157  0.49317837
   0.51334880  0.45921980  0.50081493
   0.52337364  0.44881381  0.45175660
   0.54846690  0.49176881  0.52026011
   0.57549856  0.56813929  0.52707789
   0.46611244  0.47034605  0.50857235
   0.54295958  0.53567682  0.51201885
   0.45954639  0.53743986  0.47238448
   0.58091030  0.47613300  0.54057199
Direct configuration=    27
   0.37914834  0.53806949  0.49906045
   0.37571841  0.48168936  0.48061797
   0.38663149  0.49322056  0.53778527
   0.44841529  0.44688270  0.52539064
   0.51906142  0.42885551  0.52047273
   0.55832796  0.43828997  0.44857191
   0.51788509  0.47809625  0.43049073
   0.50198888  0.42147873  0.43992950
   0.51499523  0.54526091  0.49450362
   0.57763585  0.56881000  0.56371974
   0.60892539  0.56013173  0.51424755
   0.56558217  0.60121289  0.51504866
   0.39299186  0.50458590  0.50351851
   0.44247409  0.50589368  0.49317658
   0.51335009  0.45921895  0.50081319
   0.52337348  0.44881948  0.45175250
   0.54846650  0.49176281  0.52026196
   0.57549559  0.56813567  0.52708463
   0.46611504  0.47034758  0.50857590
   0.54296132  0.53567724  0.51202576
   0.45954512  0.53743195  0.47237554
   0.58091276  0.47613013  0.54057607
Direct configuration=    28
   0.37914783  0.53807008  0.49906046
   0.37572357  0.48169202  0.48061262
   0.38662237  0.49321923  0.53778319
   0.44841643  0.44688565  0.52539453
   0.51906055  0.42884844  0.52046246
   0.55832806  0.43829935  0.44856339
   0.51788415  0.47810695  0.43049030
   0.50199016  0.42148720  0.43991834
   0.51499997  0.54525533  0.49450041
   0.57763224  0.56880793  0.56372884
   0.60892398  0.56012863  0.51425847
   0.56558052  0.60121051  0.51505722
   0.39299249  0.50458699  0.50351940
   0.44247462  0.50589285  0.49317646
   0.51335145  0.45921760  0.50081094
   0.52337330  0.44882664  0.45174734
   0.54846781  0.49175613  0.52026523
   0.57549257  0.56813196  0.52709330
   0.46611814  0.47035021  0.50857996
   0.54296174  0.53567611  0.51203352
   0.45954501  0.53742474  0.47236273
   0.58091444  0.47612694  0.54058031
Direct configuration=    29
   0.37914718  0.53807080  0.49906049
   0.37573001  0.48169544  0.48060612
   0.38661120  0.49321753  0.53778077
   0.44841787  0.44688935  0.52539956
   0.51905955  0.42883977  0.52044982
   0.55832818  0.43831092  0.44855291
   0.51788294  0.47812008  0.43048985
   0.50199169  0.42149767  0.43990470
   0.51500666  0.54524844  0.49449689
   0.57762783  0.56880539  0.56373989
   0.60892212  0.56012484  0.51427191
   0.56557853  0.60120734  0.51506779
   0.39299325  0.50458843  0.50352009
   0.44247403  0.50588859  0.49317824
   0.51335290  0.45921562  0.50080809
   0.52337305  0.44883556  0.45174097
   0.54847125  0.49174911  0.52027017
   0.57548964  0.56812833  0.52710425
   0.46612174  0.47035415  0.50858473
   0.54296030  0.53567261  0.51204217
   0.45954622  0.53741823  0.47234527
   0.58091521  0.47612330  0.54058471
Direct configuration=    30
   0.37914642  0.53807171  0.49906057
   0.37573806  0.48169985  0.48059823
   0.38659752  0.49321537  0.53777795
   0.44841982  0.44689413  0.52540616
   0.51905837  0.42882916  0.52043437
   0.55832830  0.43832511  0.44854010
   0.51788134  0.47813613  0.43048945
   0.50199351  0.42151052  0.43988814
   0.51501569  0.54523992  0.49449286
   0.57762250  0.56880234  0.56375322
   0.60891967  0.56012023  0.51428826
   0.56557610  0.60120318  0.51508074
   0.39299412  0.50459021  0.50352056
   0.44247270  0.50588129  0.49318155
   0.51335450  0.45921287  0.50080454
   0.52337270  0.44884666  0.45173310
   0.54847693  0.49174223  0.52027685
   0.57548683  0.56812493  0.52711787
   0.46612589  0.47035940  0.50859069
   0.54295665  0.53566583  0.51205200
   0.45954853  0.53741153  0.47232265
   0.58091525  0.47611892  0.54058952
Direct configuration=    31
   0.37914559  0.53807291  0.49906073
   0.37574806  0.48170553  0.48058867
   0.38658068  0.49321263  0.53777463
   0.44842263  0.44690052  0.52541495
   0.51905696  0.42881616  0.52041562
   0.55832837  0.43834250  0.44852452
   0.51787914  0.47815570  0.43048923
   0.50199563  0.42152626  0.43986819
   0.51502724  0.54522939  0.49448789
   0.57761612  0.56879875  0.56376921
   0.60891648  0.56011463  0.51430798
   0.56557305  0.60119783  0.51509642
   0.39299498  0.50459227  0.50352085
   0.44247176  0.50587294  0.49318495
   0.51335638  0.45920932  0.50080011
   0.52337221  0.44886049  0.45172347
   0.54848423  0.49173596  0.52028492
   0.57548398  0.56812157  0.52713450
   0.46613062  0.47036563  0.50859867
   0.54295095  0.53565507  0.51206365
   0.45955094  0.53740226  0.47229490
   0.58091539  0.47611320  0.54059537
Direct configuration=    32
   0.37914482  0.53807452  0.49906096
   0.37576030  0.48171277  0.48057711
   0.38656010  0.49320922  0.53777066
   0.44842674  0.44690911  0.52542677
   0.51905525  0.42880037  0.52039323
   0.55832830  0.43836356  0.44850585
   0.51787605  0.47817934  0.43048933
   0.50199804  0.42154532  0.43984450
   0.51504105  0.54521645  0.49448124
   0.57760863  0.56879463  0.56378812
   0.60891239  0.56010787  0.51433125
   0.56556916  0.60119121  0.51511501
   0.39299581  0.50459452  0.50352102
   0.44247299  0.50586702  0.49318595
   0.51335885  0.45920515  0.50079476
   0.52337139  0.44887750  0.45171195
   0.54849167  0.49173017  0.52029354
   0.57548054  0.56811769  0.52715413
   0.46613608  0.47037217  0.50860970
   0.54294431  0.53564071  0.51207818
   0.45955178  0.53738678  0.47226290
   0.58091716  0.47610542  0.54060324
Direct configuration=    33
   0.37914426  0.53807668  0.49906129
   0.37577495  0.48172176  0.48056321
   0.38653536  0.49320508  0.53776583
   0.44843248  0.44692039  0.52544277
   0.51905327  0.42878157  0.52036704
   0.55832797  0.43838869  0.44848391
   0.51787174  0.47820751  0.43048991
   0.50200068  0.42156806  0.43981698
   0.51505661  0.54520071  0.49447203
   0.57760002  0.56879006  0.56381002
   0.60890730  0.56009986  0.51435799
   0.56556409  0.60118339  0.51513640
   0.39299662  0.50459693  0.50352136
   0.44247785  0.50586639  0.49318238
   0.51336221  0.45920070  0.50078869
   0.52336995  0.44889796  0.45169863
   0.54849765  0.49172339  0.52030190
   0.57547563  0.56811226  0.52717639
   0.46614260  0.47037854  0.50862467
   0.54293854  0.53562471  0.51209674
   0.45954962  0.53736181  0.47222731
   0.58092199  0.47609508  0.54061397
Direct configuration=    34
   0.37914408  0.53807958  0.49906175
   0.37579218  0.48173279  0.48054641
   0.38650599  0.49320014  0.53775976
   0.44844007  0.44693490  0.52546493
   0.51905111  0.42875952  0.52033683
   0.55832715  0.43841845  0.44845846
   0.51786565  0.47824092  0.43049115
   0.50200346  0.42159499  0.43978554
   0.51507376  0.54518152  0.49445928
   0.57759032  0.56878518  0.56383490
   0.60890105  0.56009045  0.51438797
   0.56555734  0.60117443  0.51516038
   0.39299770  0.50459970  0.50352220
   0.44248598  0.50587043  0.49317423
   0.51336669  0.45919632  0.50078231
   0.52336741  0.44892227  0.45168353
   0.54850202  0.49171195  0.52031000
   0.57546829  0.56810406  0.52720104
   0.46615096  0.47038517  0.50864416
   0.54293525  0.53561011  0.51212039
   0.45954458  0.53732637  0.47218648
   0.58093037  0.47608227  0.54062775
Direct configuration=    35
   0.37914449  0.53808343  0.49906240
   0.37581221  0.48174622  0.48052591
   0.38647164  0.49319429  0.53775194
   0.44844958  0.44695317  0.52549626
   0.51904909  0.42873406  0.52030230
   0.55832538  0.43845365  0.44842923
   0.51785702  0.47828052  0.43049326
   0.50200614  0.42162675  0.43975022
   0.51509333  0.54515797  0.49444232
   0.57757963  0.56878019  0.56386258