  22  22   0   0
  0.1227273E+04  0.3000000E-08  0.3000000E-08  0.3000000E-08  0.0000000E+00
  1.000000000000000E-004
  CAR 
 unknown system                          
      2.19845546    -28.27936839  301     -4.50587209      1.00000000
    -28.279  0.0000E+00  0.0000E+00
    -28.178  0.0000E+00  0.0000E+00
    -28.076  0.0000E+00  0.0000E+00
    -27.975  0.0000E+00  0.0000E+00
    -27.873  0.0000E+00  0.0000E+00
    -27.771  0.0000E+00  0.0000E+00
    -27.670  0.0000E+00  0.0000E+00
    -27.568  0.0000E+00  0.0000E+00
    -27.467  0.0000E+00  0.0000E+00
    -27.365  0.5355E-15  0.5440E-16
    -27.263  0.1123E-12  0.1147E-13
    -27.162  0.1424E-10  0.1458E-11
    -27.060  0.1087E-08  0.1119E-09
    -26.959  0.5009E-07  0.5201E-08
    -26.857  0.1395E-05  0.1469E-06
    -26.755  0.2352E-04  0.2537E-05
    -26.654  0.2405E-03  0.2697E-04
    -26.552  0.1494E-02  0.1787E-03
    -26.451  0.5646E-02  0.7523E-03
    -26.349  0.1300E-01  0.2073E-02
    -26.248  0.1825E-01  0.3927E-02
    -26.146  0.1563E-01  0.5515E-02
    -26.044  0.8167E-02  0.6345E-02
    -25.943  0.2626E-02  0.6612E-02
    -25.841  0.7678E-03  0.6690E-02
    -25.740  0.1663E-02  0.6859E-02
    -25.638  0.5931E-02  0.7461E-02
    -25.536  0.1334E-01  0.8817E-02
    -25.435  0.1832E-01  0.1068E-01
    -25.333  0.1534E-01  0.1224E-01
    -25.232  0.7836E-02  0.1303E-01
    -25.130  0.2439E-02  0.1328E-01
    -25.028  0.4622E-03  0.1333E-01
    -24.927  0.5323E-04  0.1333E-01
    -24.825  0.3720E-05  0.1333E-01
    -24.724  0.1575E-06  0.1333E-01
    -24.622  0.4031E-08  0.1333E-01
    -24.520  0.6232E-10  0.1333E-01
    -24.419  0.4115E-11  0.1333E-01
    -24.317  0.3140E-09  0.1333E-01
    -24.216  0.1682E-07  0.1333E-01
    -24.114  0.5444E-06  0.1333E-01
    -24.012  0.1066E-04  0.1333E-01
    -23.911  0.1265E-03  0.1335E-01
    -23.809  0.9121E-03  0.1344E-01
    -23.708  0.3998E-02  0.1385E-01
    -23.606  0.1067E-01  0.1493E-01
    -23.505  0.1737E-01  0.1670E-01
    -23.403  0.1724E-01  0.1845E-01
    -23.301  0.1044E-01  0.1951E-01
    -23.200  0.3854E-02  0.1990E-01
    -23.098  0.8784E-03  0.1999E-01
    -22.997  0.2580E-03  0.2001E-01
    -22.895  0.9938E-03  0.2012E-01
    -22.793  0.4220E-02  0.2054E-01
    -22.692  0.1102E-01  0.2166E-01
    -22.590  0.1755E-01  0.2345E-01
    -22.489  0.1704E-01  0.2518E-01
    -22.387  0.1010E-01  0.2620E-01
    -22.285  0.3646E-02  0.2657E-01
    -22.184  0.8018E-03  0.2665E-01
    -22.082  0.1072E-03  0.2667E-01
    -21.981  0.8705E-05  0.2667E-01
    -21.879  0.4283E-06  0.2667E-01
    -21.777  0.1275E-07  0.2667E-01
    -21.676  0.2293E-09  0.2667E-01
    -21.574  0.2487E-11  0.2667E-01
    -21.473  0.1624E-13  0.2667E-01
    -21.371  0.6557E-16  0.2667E-01
    -21.269  0.0000E+00  0.2667E-01
    -21.168  0.0000E+00  0.2667E-01
    -21.066  0.0000E+00  0.2667E-01
    -20.965  0.0000E+00  0.2667E-01
    -20.863  0.0000E+00  0.2667E-01
    -20.762  0.5464E-16  0.2667E-01
    -20.660  0.1365E-13  0.2667E-01
    -20.558  0.2126E-11  0.2667E-01
    -20.457  0.1993E-09  0.2667E-01
    -20.355  0.1127E-07  0.2667E-01
    -20.254  0.3848E-06  0.2667E-01
    -20.152  0.7950E-05  0.2667E-01
    -20.050  0.9954E-04  0.2668E-01
    -19.949  0.7565E-03  0.2675E-01
    -19.847  0.3497E-02  0.2711E-01
    -19.746  0.9841E-02  0.2811E-01
    -19.644  0.1688E-01  0.2982E-01
    -19.542  0.1767E-01  0.3162E-01
    -19.441  0.1128E-01  0.3277E-01
    -19.339  0.4388E-02  0.3321E-01
    -19.238  0.1040E-02  0.3332E-01
    -19.136  0.1500E-03  0.3333E-01
    -19.034  0.1314E-04  0.3333E-01
    -18.933  0.9681E-06  0.3333E-01
    -18.831  0.5933E-05  0.3333E-01
    -18.730  0.7802E-04  0.3334E-01
    -18.628  0.6251E-03  0.3341E-01
    -18.526  0.3045E-02  0.3371E-01
    -18.425  0.9030E-02  0.3463E-01
    -18.323  0.1632E-01  0.3629E-01
    -18.222  0.1800E-01  0.3812E-01
    -18.120  0.1210E-01  0.3935E-01
    -18.019  0.4964E-02  0.3985E-01
    -17.917  0.1241E-02  0.3998E-01
    -17.815  0.2009E-03  0.4000E-01
    -17.714  0.1610E-03  0.4002E-01
    -17.612  0.1007E-02  0.4012E-01
    -17.511  0.4285E-02  0.4055E-01
    -17.409  0.1112E-01  0.4168E-01
    -17.307  0.1759E-01  0.4347E-01
    -17.206  0.1698E-01  0.4520E-01
    -17.104  0.9995E-02  0.4621E-01
    -17.003  0.3587E-02  0.4658E-01
    -16.901  0.7837E-03  0.4666E-01
    -16.799  0.1042E-03  0.4667E-01
    -16.698  0.1050E-04  0.4667E-01
    -16.596  0.3353E-04  0.4667E-01
    -16.495  0.3167E-03  0.4670E-01
    -16.393  0.1839E-02  0.4689E-01
    -16.291  0.6502E-02  0.4755E-01
    -16.190  0.1401E-01  0.4897E-01
    -16.088  0.1840E-01  0.5084E-01
    -15.987  0.1474E-01  0.5234E-01
    -15.885  0.7203E-02  0.5307E-01
    -15.783  0.2145E-02  0.5329E-01
    -15.682  0.3888E-03  0.5333E-01
    -15.580  0.4282E-04  0.5333E-01
    -15.479  0.2994E-05  0.5333E-01
    -15.377  0.3333E-05  0.5333E-01
    -15.275  0.4720E-04  0.5334E-01
    -15.174  0.4200E-03  0.5338E-01
    -15.072  0.2272E-02  0.5361E-01
    -14.971  0.7482E-02  0.5437E-01
    -14.869  0.1501E-01  0.5590E-01
    -14.768  0.1837E-01  0.5776E-01
    -14.666  0.1371E-01  0.5916E-01
    -14.564  0.6243E-02  0.5979E-01
    -14.463  0.1732E-02  0.5997E-01
    -14.361  0.3099E-03  0.6000E-01
    -14.260  0.2205E-03  0.6002E-01
    -14.158  0.1252E-02  0.6015E-01
    -14.056  0.4993E-02  0.6066E-01
    -13.955  0.1215E-01  0.6189E-01
    -13.853  0.1801E-01  0.6372E-01
    -13.752  0.1630E-01  0.6538E-01
    -13.650  0.9044E-02  0.6629E-01
    -13.548  0.3485E-02  0.6665E-01
    -13.447  0.3054E-02  0.6696E-01
    -13.345  0.7904E-02  0.6776E-01
    -13.244  0.1534E-01  0.6932E-01
    -13.142  0.1832E-01  0.7118E-01
    -13.040  0.1336E-01  0.7254E-01
    -12.939  0.5996E-02  0.7315E-01
    -12.837  0.2128E-02  0.7336E-01
    -12.736  0.2930E-02  0.7366E-01
    -12.634  0.8325E-02  0.7451E-01
    -12.532  0.1575E-01  0.7611E-01
    -12.431  0.1822E-01  0.7796E-01
    -12.329  0.1286E-01  0.7926E-01
    -12.228  0.5536E-02  0.7983E-01
    -12.126  0.1452E-02  0.7997E-01
    -12.025  0.2417E-03  0.8000E-01
    -11.923  0.1583E-03  0.8001E-01
    -11.821  0.1118E-02  0.8013E-01
    -11.720  0.5589E-02  0.8070E-01
    -11.618  0.1707E-01  0.8243E-01
    -11.517  0.3183E-01  0.8566E-01
    -11.415  0.3634E-01  0.8936E-01
    -11.313  0.2592E-01  0.9199E-01
    -11.212  0.1399E-01  0.9341E-01
    -11.110  0.1226E-01  0.9466E-01
    -11.009  0.1763E-01  0.9645E-01
    -10.907  0.2088E-01  0.9857E-01
    -10.805  0.2085E-01  0.1007E+00
    -10.704  0.2248E-01  0.1030E+00
    -10.602  0.2514E-01  0.1055E+00
    -10.501  0.2606E-01  0.1082E+00
    -10.399  0.2535E-01  0.1107E+00
    -10.297  0.2513E-01  0.1133E+00
    -10.196  0.3164E-01  0.1165E+00
    -10.094  0.4465E-01  0.1210E+00
     -9.993  0.5019E-01  0.1261E+00
     -9.891  0.3953E-01  0.1302E+00
     -9.789  0.2136E-01  0.1323E+00
     -9.688  0.8198E-02  0.1332E+00
     -9.586  0.4304E-02  0.1336E+00
     -9.485  0.8363E-02  0.1345E+00
     -9.383  0.1695E-01  0.1362E+00
     -9.282  0.2448E-01  0.1387E+00
     -9.180  0.2868E-01  0.1416E+00
     -9.078  0.3201E-01  0.1448E+00
     -8.977  0.3524E-01  0.1484E+00
     -8.875  0.3673E-01  0.1521E+00
     -8.774  0.3405E-01  0.1556E+00
     -8.672  0.2643E-01  0.1583E+00
     -8.570  0.1915E-01  0.1602E+00
     -8.469  0.1814E-01  0.1621E+00
     -8.367  0.1938E-01  0.1640E+00
     -8.266  0.1532E-01  0.1656E+00
     -8.164  0.7663E-02  0.1664E+00
     -8.062  0.2352E-02  0.1666E+00
     -7.961  0.4398E-03  0.1667E+00
     -7.859  0.5001E-04  0.1667E+00
     -7.758  0.3450E-05  0.1667E+00
     -7.656  0.1442E-06  0.1667E+00
     -7.554  0.4096E-08  0.1667E+00
     -7.453  0.2332E-07  0.1667E+00
     -7.351  0.7205E-06  0.1667E+00
     -7.250  0.1350E-04  0.1667E+00
     -7.148  0.1534E-03  0.1667E+00
     -7.046  0.1059E-02  0.1668E+00
     -6.945  0.4444E-02  0.1672E+00
     -6.843  0.1137E-01  0.1684E+00
     -6.742  0.1779E-01  0.1702E+00
     -6.640  0.1749E-01  0.1720E+00
     -6.539  0.1293E-01  0.1733E+00
     -6.437  0.1271E-01  0.1746E+00
     -6.335  0.1723E-01  0.1763E+00
     -6.234  0.1802E-01  0.1782E+00
     -6.132  0.1202E-01  0.1794E+00
     -6.031  0.5781E-02  0.1800E+00
     -5.929  0.5418E-02  0.1805E+00
     -5.827  0.1143E-01  0.1817E+00
     -5.726  0.1905E-01  0.1836E+00
     -5.624  0.2269E-01  0.1859E+00
     -5.523  0.2310E-01  0.1883E+00
     -5.421  0.2190E-01  0.1905E+00
     -5.319  0.1643E-01  0.1922E+00
     -5.218  0.8272E-02  0.1930E+00
     -5.116  0.2608E-02  0.1933E+00
     -5.015  0.5041E-03  0.1933E+00
     -4.913  0.5934E-04  0.1933E+00
     -4.811  0.4241E-05  0.1933E+00
     -4.710  0.1836E-06  0.1933E+00
     -4.608  0.4809E-08  0.1933E+00
     -4.507  0.7604E-10  0.1933E+00
     -4.405  0.7249E-12  0.1933E+00
     -4.303  0.4160E-14  0.1933E+00
     -4.202  0.1457E-16  0.1933E+00
     -4.100  0.0000E+00  0.1933E+00
     -3.999  0.0000E+00  0.1933E+00
     -3.897  0.0000E+00  0.1933E+00
     -3.796  0.0000E+00  0.1933E+00
     -3.694  0.0000E+00  0.1933E+00
     -3.592  0.0000E+00  0.1933E+00
     -3.491  0.0000E+00  0.1933E+00
     -3.389  0.0000E+00  0.1933E+00
     -3.288  0.0000E+00  0.1933E+00
     -3.186  0.0000E+00  0.1933E+00
     -3.084  0.0000E+00  0.1933E+00
     -2.983  0.0000E+00  0.1933E+00
     -2.881  0.0000E+00  0.1933E+00
     -2.780  0.0000E+00  0.1933E+00
     -2.678  0.0000E+00  0.1933E+00
     -2.576  0.0000E+00  0.1933E+00
     -2.475  0.0000E+00  0.1933E+00
     -2.373  0.0000E+00  0.1933E+00
     -2.272  0.6921E-16  0.1933E+00
     -2.170  0.1755E-13  0.1933E+00
     -2.068  0.2672E-11  0.1933E+00
     -1.967  0.2455E-09  0.1933E+00
     -1.865  0.1363E-07  0.1933E+00
     -1.764  0.4590E-06  0.1933E+00
     -1.662  0.9414E-05  0.1933E+00
     -1.560  0.1183E-03  0.1933E+00
     -1.459  0.9177E-03  0.1934E+00
     -1.357  0.4445E-02  0.1939E+00
     -1.256  0.1363E-01  0.1953E+00
     -1.154  0.2682E-01  0.1980E+00
     -1.053  0.3429E-01  0.2015E+00
     -0.951  0.2865E-01  0.2044E+00
     -0.849  0.1576E-01  0.2060E+00
     -0.748  0.6765E-02  0.2067E+00
     -0.646  0.6632E-02  0.2074E+00
     -0.545  0.1445E-01  0.2088E+00
     -0.443  0.2617E-01  0.2115E+00
     -0.341  0.3776E-01  0.2153E+00
     -0.240  0.4831E-01  0.2202E+00
     -0.138  0.5939E-01  0.2263E+00
     -0.037  0.7724E-01  0.2341E+00
      0.065  0.1031E+00  0.2446E+00
      0.167  0.1160E+00  0.2564E+00
      0.268  0.9392E-01  0.2659E+00
      0.370  0.5080E-01  0.2711E+00
      0.471  0.1774E-01  0.2729E+00
      0.573  0.3930E-02  0.2733E+00
      0.675  0.5458E-03  0.2733E+00
      0.776  0.4714E-04  0.2733E+00
      0.878  0.2515E-05  0.2733E+00
      0.979  0.8246E-07  0.2733E+00
      1.081  0.1653E-08  0.2733E+00
      1.183  0.2019E-10  0.2733E+00
      1.284  0.1496E-12  0.2733E+00
      1.386  0.6721E-15  0.2733E+00
      1.487  0.0000E+00  0.2733E+00
      1.589  0.0000E+00  0.2733E+00
      1.690  0.0000E+00  0.2733E+00
      1.792  0.0000E+00  0.2733E+00
      1.894  0.0000E+00  0.2733E+00
      1.995  0.0000E+00  0.2733E+00
      2.097  0.0000E+00  0.2733E+00
      2.198  0.0000E+00  0.2733E+00
