   22   22  300    1
  0.1227273E+04  0.3000000E-08  0.3000000E-08  0.3000000E-08  0.0000000E+00
  1.000000000000000E-004
  CAR 
 unknown system                          
     58      4     41
 
  0.2500000E+00  0.2500000E+00  0.2500000E+00  0.2500000E+00
    1      -26.279366   1.000000
    2      -25.471228   1.000000
    3      -23.506016   1.000000
    4      -22.596174   1.000000
    5      -19.634655   1.000000
    6      -18.303208   1.000000
    7      -17.314662   1.000000
    8      -16.133778   1.000000
    9      -14.827629   1.000000
   10      -13.873790   1.000000
   11      -13.207060   1.000000
   12      -12.502482   1.000000
   13      -11.498517   1.000000
   14      -11.480800   1.000000
   15      -10.993411   1.000000
   16      -10.681354   1.000000
   17      -10.435241   1.000000
   18      -10.115444   1.000000
   19      -10.072630   1.000000
   20       -9.957453   1.000000
   21       -9.346536   1.000000
   22       -9.112456   1.000000
   23       -8.928176   1.000000
   24       -8.766719   1.000000
   25       -8.406269   1.000000
   26       -6.752110   1.000000
   27       -6.318293   1.000000
   28       -5.731662   1.000000
   29       -5.452866   1.000000
   30       -1.149527   0.000000
   31       -1.041484   0.000000
   32       -0.465993   0.000000
   33       -0.274337   0.000000
   34       -0.192854   0.000000
   35       -0.043164   0.000000
   36        0.045989   0.000000
   37        0.106275   0.000000
   38        0.129510   0.000000
   39        0.133822   0.000000
   40        0.179806   0.000000
   41        0.198455   0.000000
 
 -0.2500000E+00  0.2500000E+00  0.2500000E+00  0.2500000E+00
    1      -26.279366   1.000000
    2      -25.471227   1.000000
    3      -23.506017   1.000000
    4      -22.596175   1.000000
    5      -19.634654   1.000000
    6      -18.303208   1.000000
    7      -17.314661   1.000000
    8      -16.133777   1.000000
    9      -14.827626   1.000000
   10      -13.873793   1.000000
   11      -13.207058   1.000000
   12      -12.502475   1.000000
   13      -11.498519   1.000000
   14      -11.480796   1.000000
   15      -10.993406   1.000000
   16      -10.681353   1.000000
   17      -10.435251   1.000000
   18      -10.115437   1.000000
   19      -10.072635   1.000000
   20       -9.957456   1.000000
   21       -9.346530   1.000000
   22       -9.112461   1.000000
   23       -8.928182   1.000000
   24       -8.766718   1.000000
   25       -8.406266   1.000000
   26       -6.752108   1.000000
   27       -6.318293   1.000000
   28       -5.731684   1.000000
   29       -5.452864   1.000000
   30       -1.149537   0.000000
   31       -1.041482   0.000000
   32       -0.465988   0.000000
   33       -0.274343   0.000000
   34       -0.192806   0.000000
   35       -0.043261   0.000000
   36        0.045827   0.000000
   37        0.102498   0.000000
   38        0.129578   0.000000
   39        0.140921   0.000000
   40        0.185192   0.000000
   41        0.192319   0.000000
 
  0.2500000E+00 -0.2500000E+00  0.2500000E+00  0.2500000E+00
    1      -26.279368   1.000000
    2      -25.471225   1.000000
    3      -23.506017   1.000000
    4      -22.596175   1.000000
    5      -19.634658   1.000000
    6      -18.303206   1.000000
    7      -17.314663   1.000000
    8      -16.133781   1.000000
    9      -14.827619   1.000000
   10      -13.873804   1.000000
   11      -13.207058   1.000000
   12      -12.502480   1.000000
   13      -11.498523   1.000000
   14      -11.480799   1.000000
   15      -10.993407   1.000000
   16      -10.681348   1.000000
   17      -10.435243   1.000000
   18      -10.115449   1.000000
   19      -10.072630   1.000000
   20       -9.957449   1.000000
   21       -9.346528   1.000000
   22       -9.112462   1.000000
   23       -8.928177   1.000000
   24       -8.766723   1.000000
   25       -8.406273   1.000000
   26       -6.752098   1.000000
   27       -6.318299   1.000000
   28       -5.731683   1.000000
   29       -5.452864   1.000000
   30       -1.149538   0.000000
   31       -1.041483   0.000000
   32       -0.465973   0.000000
   33       -0.274353   0.000000
   34       -0.192817   0.000000
   35       -0.041985   0.000000
   36        0.038826   0.000000
   37        0.112103   0.000000
   38        0.126484   0.000000
   39        0.142958   0.000000
   40        0.186410   0.000000
   41        0.193879   0.000000
 
 -0.2500000E+00 -0.2500000E+00  0.2500000E+00  0.2500000E+00
    1      -26.279367   1.000000
    2      -25.471229   1.000000
    3      -23.506016   1.000000
    4      -22.596173   1.000000
    5      -19.634655   1.000000
    6      -18.303211   1.000000
    7      -17.314664   1.000000
    8      -16.133778   1.000000
    9      -14.827626   1.000000
   10      -13.873798   1.000000
   11      -13.207060   1.000000
   12      -12.502478   1.000000
   13      -11.498509   1.000000
   14      -11.480797   1.000000
   15      -10.993412   1.000000
   16      -10.681348   1.000000
   17      -10.435249   1.000000
   18      -10.115442   1.000000
   19      -10.072636   1.000000
   20       -9.957450   1.000000
   21       -9.346533   1.000000
   22       -9.112478   1.000000
   23       -8.928170   1.000000
   24       -8.766720   1.000000
   25       -8.406273   1.000000
   26       -6.752095   1.000000
   27       -6.318296   1.000000
   28       -5.731673   1.000000
   29       -5.452863   1.000000
   30       -1.149544   0.000000
   31       -1.041483   0.000000
   32       -0.465985   0.000000
   33       -0.274347   0.000000
   34       -0.192839   0.000000
   35       -0.042075   0.000000
   36        0.039417   0.000000
   37        0.116510   0.000000
   38        0.127987   0.000000
   39        0.137062   0.000000
   40        0.177382   0.000000
   41        0.190721   0.000000
