 vasp.5.4.1 24Jun15 (build Jan 13 2020 12:58:22) complex                        
  
 executed on           IFC91_ompi date 2020.02.03  09:59:13
 running on   15 total cores
 each image running on    1 cores
 distrk:  each k-point on    1 cores,    1 groups
 distr:  one band on NCORES_PER_BAND=   1 cores,    1 groups


--------------------------------------------------------------------------------------------------------


 INCAR:
 POTCAR:    PAW_PBE H 15Jun2001                   
 POTCAR:    PAW_PBE C 08Apr2002                   
 POTCAR:    PAW_PBE N 08Apr2002                   
 POTCAR:    PAW_PBE O 08Apr2002                   
 POTCAR:    PAW_PBE H 15Jun2001                   
   VRHFIN =H: ultrasoft test                                                    
   LEXCH  = PE                                                                  
   EATOM  =    12.4884 eV,    0.9179 Ry                                         
                                                                                
   TITEL  = PAW_PBE H 15Jun2001                                                 
   LULTRA =        F    use ultrasoft PP ?                                      
   IUNSCR =        0    unscreen: 0-lin 1-nonlin 2-no                           
   RPACOR =    0.000    partial core radius                                     
   POMASS =    1.000; ZVAL   =    1.000    mass and valenz                      
   RCORE  =    1.100    outmost cutoff radius                                   
   RWIGS  =    0.700; RWIGS  =    0.370    wigner-seitz radius (au A)           
   ENMAX  =  250.000; ENMIN  =  200.000 eV                                      
   RCLOC  =    0.701    cutoff for local pot                                    
   LCOR   =        T    correct aug charges                                     
   LPAW   =        T    paw PP                                                  
   EAUG   =  400.000                                                            
   RMAX   =    1.123    core radius for proj-oper                               
   RAUG   =    1.200    factor for augmentation sphere                          
   RDEP   =    1.112    radius for radial grids                                 
   RDEPT  =    0.926    core radius for aug-charge                              
                                                                                
   Atomic configuration                                                         
    2 entries                                                                   
     n  l   j            E        occ.                                          
     1  0  0.50        -6.4927   1.0000                                         
     2  1  0.50        -3.4015   0.0000                                         
   Description                                                                  
     l       E           TYP  RCUT    TYP  RCUT                                 
     0     -6.4927494     23  1.100                                             
     0      6.8029130     23  1.100                                             
     1     -4.0817478     23  1.100                                             
  local pseudopotential read in
  atomic valenz-charges read in
  non local Contribution for L=           0  read in
    real space projection operators read in
  non local Contribution for L=           0  read in
    real space projection operators read in
  non local Contribution for L=           1  read in
    real space projection operators read in
    PAW grid and wavefunctions read in
 
   number of l-projection  operators is LMAX  =           3
   number of lm-projection operators is LMMAX =           5
 
 POTCAR:    PAW_PBE C 08Apr2002                   
   VRHFIN =C: s2p2                                                              
   LEXCH  = PE                                                                  
   EATOM  =   147.1560 eV,   10.8157 Ry                                         
                                                                                
   TITEL  = PAW_PBE C 08Apr2002                                                 
   LULTRA =        F    use ultrasoft PP ?                                      
   IUNSCR =        1    unscreen: 0-lin 1-nonlin 2-no                           
   RPACOR =    1.200    partial core radius                                     
   POMASS =   12.011; ZVAL   =    4.000    mass and valenz                      
   RCORE  =    1.500    outmost cutoff radius                                   
   RWIGS  =    1.630; RWIGS  =    0.863    wigner-seitz radius (au A)           
   ENMAX  =  400.000; ENMIN  =  300.000 eV                                      
   ICORE  =        2    local potential                                         
   LCOR   =        T    correct aug charges                                     
   LPAW   =        T    paw PP                                                  
   EAUG   =  644.873                                                            
   DEXC   =    0.000                                                            
   RMAX   =    1.529    core radius for proj-oper                               
   RAUG   =    1.300    factor for augmentation sphere                          
   RDEP   =    1.501    radius for radial grids                                 
   RDEPT  =    1.300    core radius for aug-charge                              
                                                                                
   Atomic configuration                                                         
    4 entries                                                                   
     n  l   j            E        occ.                                          
     1  0  0.50      -273.3789   2.0000                                         
     2  0  0.50       -13.7508   2.0000                                         
     2  1  0.50        -5.2854   2.0000                                         
     3  2  1.50        -5.4423   0.0000                                         
   Description                                                                  
     l       E           TYP  RCUT    TYP  RCUT                                 
     0    -13.7508458     23  1.200                                             
     0     -8.2022199     23  1.200                                             
     1     -5.2854383     23  1.500                                             
     1     34.0145650     23  1.500                                             
     2     -5.4423304      7  1.500                                             
  local pseudopotential read in
  partial core-charges read in
  partial kinetic energy density read in
  atomic valenz-charges read in
  non local Contribution for L=           0  read in
    real space projection operators read in
  non local Contribution for L=           0  read in
    real space projection operators read in
  non local Contribution for L=           1  read in
    real space projection operators read in
  non local Contribution for L=           1  read in
    real space projection operators read in
    PAW grid and wavefunctions read in
 
   number of l-projection  operators is LMAX  =           4
   number of lm-projection operators is LMMAX =           8
 
 POTCAR:    PAW_PBE N 08Apr2002                   
   VRHFIN =N: s2p3                                                              
   LEXCH  = PE                                                                  
   EATOM  =   264.5486 eV,   19.4438 Ry                                         
                                                                                
   TITEL  = PAW_PBE N 08Apr2002                                                 
   LULTRA =        F    use ultrasoft PP ?                                      
   IUNSCR =        1    unscreen: 0-lin 1-nonlin 2-no                           
   RPACOR =    1.200    partial core radius                                     
   POMASS =   14.001; ZVAL   =    5.000    mass and valenz                      
   RCORE  =    1.500    outmost cutoff radius                                   
   RWIGS  =    1.400; RWIGS  =    0.741    wigner-seitz radius (au A)           
   ENMAX  =  400.000; ENMIN  =  300.000 eV                                      
   ICORE  =        2    local potential                                         
   LCOR   =        T    correct aug charges                                     
   LPAW   =        T    paw PP                                                  
   EAUG   =  627.112                                                            
   DEXC   =    0.000                                                            
   RMAX   =    1.529    core radius for proj-oper                               
   RAUG   =    1.300    factor for augmentation sphere                          
   RDEP   =    1.514    radius for radial grids                                 
   RDEPT  =    1.338    core radius for aug-charge                              
                                                                                
   Atomic configuration                                                         
    4 entries                                                                   
     n  l   j            E        occ.                                          
     1  0  0.50      -384.7179   2.0000                                         
     2  0  0.50       -18.5828   2.0000                                         
     2  1  0.50        -7.0898   3.0000                                         
     3  2  1.50        -6.8029   0.0000                                         
   Description                                                                  
     l       E           TYP  RCUT    TYP  RCUT                                 
     0    -18.5828119     23  1.200                                             
     0    -13.5018863     23  1.200                                             
     1     -7.0897853     23  1.500                                             
     1      9.5240782     23  1.500                                             
     2     -6.8029130      7  1.500                                             
  local pseudopotential read in
  partial core-charges read in
  partial kinetic energy density read in
  atomic valenz-charges read in
  non local Contribution for L=           0  read in
    real space projection operators read in
  non local Contribution for L=           0  read in
    real space projection operators read in
  non local Contribution for L=           1  read in
    real space projection operators read in
  non local Contribution for L=           1  read in
    real space projection operators read in
    PAW grid and wavefunctions read in
 
   number of l-projection  operators is LMAX  =           4
   number of lm-projection operators is LMMAX =           8
 
 POTCAR:    PAW_PBE O 08Apr2002                   
   VRHFIN =O: s2p4                                                              
   LEXCH  = PE                                                                  
   EATOM  =   432.3788 eV,   31.7789 Ry                                         
                                                                                
   TITEL  = PAW_PBE O 08Apr2002                                                 
   LULTRA =        F    use ultrasoft PP ?                                      
   IUNSCR =        1    unscreen: 0-lin 1-nonlin 2-no                           
   RPACOR =    1.200    partial core radius                                     
   POMASS =   16.000; ZVAL   =    6.000    mass and valenz                      
   RCORE  =    1.520    outmost cutoff radius                                   
   RWIGS  =    1.550; RWIGS  =    0.820    wigner-seitz radius (au A)           
   ENMAX  =  400.000; ENMIN  =  300.000 eV                                      
   ICORE  =        2    local potential                                         
   LCOR   =        T    correct aug charges                                     
   LPAW   =        T    paw PP                                                  
   EAUG   =  605.392                                                            
   DEXC   =    0.000                                                            
   RMAX   =    1.553    core radius for proj-oper                               
   RAUG   =    1.300    factor for augmentation sphere                          
   RDEP   =    1.550    radius for radial grids                                 
   RDEPT  =    1.329    core radius for aug-charge                              
                                                                                
   Atomic configuration                                                         
    4 entries                                                                   
     n  l   j            E        occ.                                          
     1  0  0.50      -514.6923   2.0000                                         
     2  0  0.50       -23.9615   2.0000                                         
     2  1  0.50        -9.0305   4.0000                                         
     3  2  1.50        -9.5241   0.0000                                         
   Description                                                                  
     l       E           TYP  RCUT    TYP  RCUT                                 
     0    -23.9615318     23  1.200                                             
     0     -9.5240782     23  1.200                                             
     1     -9.0304911     23  1.520                                             
     1      8.1634956     23  1.520                                             
     2     -9.5240782      7  1.500                                             
  local pseudopotential read in
  partial core-charges read in
  partial kinetic energy density read in
  kinetic energy density of atom read in
  atomic valenz-charges read in
  non local Contribution for L=           0  read in
    real space projection operators read in
  non local Contribution for L=           0  read in
    real space projection operators read in
  non local Contribution for L=           1  read in
    real space projection operators read in
  non local Contribution for L=           1  read in
    real space projection operators read in
    PAW grid and wavefunctions read in
 
   number of l-projection  operators is LMAX  =           4
   number of lm-projection operators is LMMAX =           8
 
 Optimization of the real space projectors (new method)

 maximal supplied QI-value         = 34.20
 optimisation between [QCUT,QGAM] = [  9.92, 20.18] = [ 27.55,114.04] Ry 
 Optimized for a Real-space Cutoff    1.26 Angstroem

   l    n(q)    QCUT    max X(q) W(low)/X(q) W(high)/X(q)  e(spline) 
   0      8     9.919    19.460    0.50E-03    0.23E-03    0.29E-06
   0      8     9.919    12.209    0.48E-03    0.23E-03    0.28E-06
   1      7     9.919     4.655    0.17E-03    0.75E-03    0.30E-06
 Optimization of the real space projectors (new method)

 maximal supplied QI-value         = 25.13
 optimisation between [QCUT,QGAM] = [ 10.05, 20.36] = [ 28.30,116.06] Ry 
 Optimized for a Real-space Cutoff    1.30 Angstroem

   l    n(q)    QCUT    max X(q) W(low)/X(q) W(high)/X(q)  e(spline) 
   0      8    10.053   115.676    0.49E-03    0.72E-03    0.18E-06
   0      8    10.053    87.132    0.49E-03    0.71E-03    0.18E-06
   1      7    10.053     4.429    0.32E-03    0.31E-03    0.18E-06
   1      7    10.053     2.733    0.23E-03    0.19E-03    0.20E-06
 Optimization of the real space projectors (new method)

 maximal supplied QI-value         = 25.13
 optimisation between [QCUT,QGAM] = [ 10.05, 20.36] = [ 28.30,116.06] Ry 
 Optimized for a Real-space Cutoff    1.65 Angstroem

   l    n(q)    QCUT    max X(q) W(low)/X(q) W(high)/X(q)  e(spline) 
   0     10    10.053    79.467    0.76E-04    0.72E-04    0.56E-06
   0     10    10.053    66.151    0.76E-04    0.72E-04    0.55E-06
   1     10    10.053     8.350    0.25E-03    0.92E-03    0.41E-05
   1     10    10.053     5.531    0.27E-03    0.10E-02    0.45E-05
 Optimization of the real space projectors (new method)

 maximal supplied QI-value         = 24.76
 optimisation between [QCUT,QGAM] = [ 10.15, 20.30] = [ 28.85,115.39] Ry 
 Optimized for a Real-space Cutoff    1.38 Angstroem

   l    n(q)    QCUT    max X(q) W(low)/X(q) W(high)/X(q)  e(spline) 
   0      8    10.150    20.381    0.22E-03    0.32E-03    0.29E-06
   0      8    10.150    15.268    0.23E-03    0.35E-03    0.30E-06
   1      8    10.150     5.964    0.46E-03    0.53E-03    0.21E-06
   1      8    10.150     5.382    0.38E-03    0.45E-03    0.19E-06
  PAW_PBE H 15Jun2001                   :
 energy of atom  1       EATOM=  -12.4884
 kinetic energy error for atom=    0.0098 (will be added to EATOM!!)
  PAW_PBE C 08Apr2002                   :
 energy of atom  2       EATOM= -147.1560
 kinetic energy error for atom=    0.0288 (will be added to EATOM!!)
  PAW_PBE N 08Apr2002                   :
 energy of atom  3       EATOM= -264.5486
 kinetic energy error for atom=    0.0736 (will be added to EATOM!!)
  PAW_PBE O 08Apr2002                   :
 energy of atom  4       EATOM= -432.3788
 kinetic energy error for atom=    0.1156 (will be added to EATOM!!)
 
 
 POSCAR: H12 C6 N2 O2                            
  positions in direct lattice
  velocities in cartesian coordinates
 exchange correlation table for  LEXCH =        8
   RHO(1)=    0.500       N(1)  =     2000
   RHO(2)=  100.500       N(2)  =     4000

 VTST: version 3.2, (02/03/18)

 CHAIN: initializing optimizer
 
 OPT: Using FIRE optimizer
 OPT: FIRE, Init
 OPT: FIRE, MAXMOVE       0.20000
 OPT: FIRE, TIMESTEP      0.10000
 OPT: FIRE, FTIMEMAX      1.00000
 OPT: FIRE, FTIMEINC      1.10000
 OPT: FIRE, FTIMEDEC      0.50000
 OPT: FIRE, FALPHADEC     0.99000
 OPT: FIRE, FALPHA        0.10000
 OPT: FIRE, FNMIN         5
 
 CHAIN: Read ICHAIN            0
 CHAIN: Running the NEB
 NEB:          SPRING     -5.000000
 NEB:          LCLIMB      T
 NEB:     LTANGENTOLD      F
 NEB:           LDNEB      F
 NEB:        LDNEBORG      F
 NEB:        LNEBCELL      F
 NEB:          EFIRST      0.000000
 NEB:           ELAST      0.000000
 
 POSCAR: H12 C6 N2 O2                            
  positions in direct lattice
  No initial velocities read in
 
 POSCAR: H12 C6 N2 O2                            
  positions in direct lattice
  No initial velocities read in
 


--------------------------------------------------------------------------------------------------------


 ion  position               nearest neighbor table
   1  0.375  0.536  0.498-  13 1.09
   2  0.380  0.488  0.463-  13 1.10
   3  0.381  0.482  0.522-  13 1.10
   4  0.444  0.444  0.496-  19 1.02
   5  0.513  0.429  0.523-  15 1.11
   6  0.568  0.448  0.460-  16 1.10
   7  0.525  0.480  0.435-  16 1.10
   8  0.519  0.421  0.441-  16 1.10
   9  0.508  0.546  0.510-  20 1.04
  10  0.603  0.546  0.543-  18 1.09
  11  0.585  0.576  0.495-  18 1.10
  12  0.569  0.595  0.549-  18 1.10
  13  0.391  0.503  0.494-   1 1.09   3 1.10   2 1.10  14 1.51
  14  0.441  0.510  0.495-  21 1.24  19 1.36  13 1.51
  15  0.512  0.460  0.503-   5 1.11  19 1.48  16 1.54  17 1.55
  16  0.532  0.452  0.457-   7 1.10   6 1.10   8 1.10  15 1.54
  17  0.545  0.491  0.528-  22 1.24  20 1.35  15 1.55
  18  0.575  0.565  0.529-  10 1.09  12 1.10  11 1.10  20 1.45
  19  0.464  0.471  0.501-   4 1.02  14 1.36  15 1.48
  20  0.537  0.536  0.526-   9 1.04  17 1.35  18 1.45
  21  0.457  0.548  0.491-  14 1.24
  22  0.579  0.474  0.543-  17 1.24
 
  LATTYP: Found a simple cubic cell.
 ALAT       =    30.0000000000
  
  Lattice vectors:
  
 A1 = (  30.0000000000,   0.0000000000,   0.0000000000)
 A2 = (   0.0000000000,  30.0000000000,   0.0000000000)
 A3 = (   0.0000000000,   0.0000000000,  30.0000000000)


Analysis of symmetry for initial positions (statically):
=====================================================================
 Subroutine PRICEL returns:
 Original cell was already a primitive cell.
 

 Routine SETGRP: Setting up the symmetry group for a 
 simple cubic supercell.


 Subroutine GETGRP returns: Found  1 space group operations
 (whereof  1 operations were pure point group operations)
 out of a pool of 48 trial point group operations.


The static configuration has the point symmetry C_1 .


Analysis of symmetry for dynamics (positions and initial velocities):
=====================================================================
 Subroutine PRICEL returns:
 Original cell was already a primitive cell.
 

 Routine SETGRP: Setting up the symmetry group for a 
 simple cubic supercell.


 Subroutine GETGRP returns: Found  1 space group operations
 (whereof  1 operations were pure point group operations)
 out of a pool of 48 trial point group operations.


The dynamic configuration has the point symmetry C_1 .
 
 
 KPOINTS: Mo2C                                    

Automatic generation of k-mesh.
Space group operators:
 irot       det(A)        alpha          n_x          n_y          n_z        tau_x        tau_y        tau_z
    1     1.000000     0.000000     1.000000     0.000000     0.000000     0.000000     0.000000     0.000000
 
 Subroutine IBZKPT returns following result:
 ===========================================
 
 Found      4 irreducible k-points:
 
 Following reciprocal coordinates:
            Coordinates               Weight
  0.250000  0.250000  0.250000      2.000000
 -0.250000  0.250000  0.250000      2.000000
  0.250000 -0.250000  0.250000      2.000000
 -0.250000 -0.250000  0.250000      2.000000
 
 Following cartesian coordinates:
            Coordinates               Weight
  0.008333  0.008333  0.008333      2.000000
 -0.008333  0.008333  0.008333      2.000000
  0.008333 -0.008333  0.008333      2.000000
 -0.008333 -0.008333  0.008333      2.000000
 


--------------------------------------------------------------------------------------------------------




 Dimension of arrays:
   k-points           NKPTS =      4   k-points in BZ     NKDIM =      4   number of bands    NBANDS=     41
   number of dos      NEDOS =    301   number of ions     NIONS =     22
   non local maximal  LDIM  =      4   non local SUM 2l+1 LMDIM =      8
   total plane-waves  NPLWV = ******
   max r-space proj   IRMAX =   2395   max aug-charges    IRDMAX=   1821
   dimension x,y,z NGX =   150 NGY =  150 NGZ =  150
   dimension x,y,z NGXF=   300 NGYF=  300 NGZF=  300
   support grid    NGXF=   300 NGYF=  300 NGZF=  300
   ions per type =              12   6   2   2
 NGX,Y,Z   is equivalent  to a cutoff of   8.31,  8.31,  8.31 a.u.
 NGXF,Y,Z  is equivalent  to a cutoff of  16.62, 16.62, 16.62 a.u.


 I would recommend the setting:
   dimension x,y,z NGX =   147 NGY =  147 NGZ =  147
 SYSTEM =  unknown system                          
 POSCAR =  H12 C6 N2 O2                            

 Startparameter for this run:
   NWRITE =      2    write-flag & timer
   PREC   = normal    normal or accurate (medium, high low for compatibility)
   ISTART =      0    job   : 0-new  1-cont  2-samecut
   ICHARG =      2    charge: 1-file 2-atom 10-const
   ISPIN  =      1    spin polarized calculation?
   LNONCOLLINEAR =      F non collinear calculations
   LSORBIT =      F    spin-orbit coupling
   INIWAV =      1    electr: 0-lowe 1-rand  2-diag
   LASPH  =      F    aspherical Exc in radial PAW
   METAGGA=      F    non-selfconsistent MetaGGA calc.

 Electronic Relaxation 1
   ENCUT  =  400.0 eV  29.40 Ry    5.42 a.u.  48.92 48.92 48.92*2*pi/ulx,y,z
   ENINI  =  400.0     initial cutoff
   ENAUG  =  644.9 eV  augmentation charge cutoff
   NELM   =    500;   NELMIN=  6; NELMDL= -5     # of ELM steps 
   EDIFF  = 0.1E-03   stopping-criterion for ELM
   LREAL  =      T    real-space projection
   NLSPLINE    = F    spline interpolate recip. space projectors
   LCOMPAT=      F    compatible to vasp.4.4
   GGA_COMPAT  = T    GGA compatible to vasp.4.4-vasp.4.6
   LMAXPAW     = -100 max onsite density
   LMAXMIX     =    2 max onsite mixed and CHGCAR
   VOSKOWN=      0    Vosko Wilk Nusair interpolation
   ROPT   =   -0.00050  -0.00050  -0.00050  -0.00050
 Ionic relaxation
   EDIFFG = -.1E+00   stopping-criterion for IOM
   NSW    =    300    number of steps for IOM
   NBLOCK =      1;   KBLOCK =    300    inner block; outer block 
   IBRION =      3    ionic relax: 0-MD 1-quasi-New 2-CG
   NFREE  =      0    steps in history (QN), initial steepest desc. (CG)
   ISIF   =      2    stress and relaxation
   IWAVPR =     11    prediction:  0-non 1-charg 2-wave 3-comb
   ISYM   =      2    0-nonsym 1-usesym 2-fastsym
   LCORR  =      T    Harris-Foulkes like correction to forces

   POTIM  = 0.0000    time-step for ionic-motion
   TEIN   =    0.0    initial temperature
   TEBEG  =    0.0;   TEEND  =   0.0 temperature during run
   SMASS  =   2.00    Nose mass-parameter (am)
   estimated Nose-frequenzy (Omega)   =  0.24E+10 period in steps =  0.00 mass=   0.137E-25a.u.
   SCALEE = 1.0000    scale energy and forces
   NPACO  =    256;   APACO  = 16.0  distance and # of slots for P.C.
   PSTRESS=    0.0 pullay stress

  Mass of Ions in am
   POMASS =   1.00 12.01 14.00 16.00
  Ionic Valenz
   ZVAL   =   1.00  4.00  5.00  6.00
  Atomic Wigner-Seitz radii
   RWIGS  =  -1.00 -1.00 -1.00 -1.00
  virtual crystal weights 
   VCA    =   1.00  1.00  1.00  1.00
   NELECT =      58.0000    total number of electrons
   NUPDOWN=      -1.0000    fix difference up-down

 DOS related values:
   EMIN   =  10.00;   EMAX   =-10.00  energy-range for DOS
   EFERMI =   0.00
   ISMEAR =     0;   SIGMA  =   0.20  broadening in eV -4-tet -1-fermi 0-gaus

 Electronic relaxation 2 (details)
   IALGO  =     38    algorithm
   LDIAG  =      T    sub-space diagonalisation (order eigenvalues)
   LSUBROT=      F    optimize rotation matrix (better conditioning)
   TURBO    =      0    0=normal 1=particle mesh
   IRESTART =      0    0=no restart 2=restart with 2 vectors
   NREBOOT  =      0    no. of reboots
   NMIN     =      0    reboot dimension
   EREF     =   0.00    reference energy to select bands
   IMIX   =      4    mixing-type and parameters
     AMIX     =   0.40;   BMIX     =  1.00
     AMIX_MAG =   1.60;   BMIX_MAG =  1.00
     AMIN     =   0.10
     WC   =   100.;   INIMIX=   1;  MIXPRE=   1;  MAXMIX= -45

 Intra band minimization:
   WEIMIN = 0.0010     energy-eigenvalue tresh-hold
   EBREAK =  0.61E-06  absolut break condition
   DEPER  =   0.30     relativ break condition  

   TIME   =   0.40     timestep for ELM

  volume/ion in A,a.u.               =    1227.27      8282.05
  Fermi-wavevector in a.u.,A,eV,Ry     =   0.211234  0.399174  0.607087  0.044620
  Thomas-Fermi vector in A             =   0.980021
 
 Write flags
   LWAVE  =      F    write WAVECAR
   LCHARG =      F    write CHGCAR
   LVTOT  =      F    write LOCPOT, total local potential
   LVHAR  =      F    write LOCPOT, Hartree potential only
   LELF   =      F    write electronic localiz. function (ELF)
   LORBIT =      0    0 simple, 1 ext, 2 COOP (PROOUT)


 Dipole corrections
   LMONO  =      F    monopole corrections only (constant potential shift)
   LDIPOL =      F    correct potential (dipole corrections)
   IDIPOL =      0    1-x, 2-y, 3-z, 4-all directions 
   EPSILON=  1.0000000 bulk dielectric constant

 Exchange correlation treatment:
   GGA     =    PE    GGA type
   LEXCH   =     8    internal setting for exchange type
   VOSKOWN=      0    Vosko Wilk Nusair interpolation
   LHFCALC =     F    Hartree Fock is set to
   LHFONE  =     F    Hartree Fock one center treatment
   AEXX    =    0.0000 exact exchange contribution

 Linear response parameters
   LEPSILON=     F    determine dielectric tensor
   LRPA    =     F    only Hartree local field effects (RPA)
   LNABLA  =     F    use nabla operator in PAW spheres
   LVEL    =     F    velocity operator in full k-point grid
   LINTERFAST=   F  fast interpolation
   KINTER  =     0    interpolate to denser k-point grid
   CSHIFT  =0.1000    complex shift for real part using Kramers Kronig
   OMEGAMAX=  -1.0    maximum frequency
   DEG_THRESHOLD= 0.2000000E-02 threshold for treating states as degnerate
   RTIME   =    0.100 relaxation time in fs

 Orbital magnetization related:
   ORBITALMAG=     F  switch on orbital magnetization
   LCHIMAG   =     F  perturbation theory with respect to B field
   DQ        =  0.001000  dq finite difference perturbation B field



--------------------------------------------------------------------------------------------------------


 quickmin algorithm: (dynamic with friction)
 charge density and potential will be updated during run
 non-spin polarized calculation
 Variant of blocked Davidson
 Davidson routine will perform the subspace rotation
 perform sub-space diagonalisation
    after iterative eigenvector-optimisation
 modified Broyden-mixing scheme, WC =      100.0
 initial mixing is a Kerker type mixing with AMIX =  0.4000 and BMIX =      1.0000
 Hartree-type preconditioning will be used
 using additional bands           12
 real space projection scheme for non local part
 use partial core corrections
 calculate Harris-corrections to forces 
   (improved forces if not selfconsistent)
 use gradient corrections 
 use of overlap-Matrix (Vanderbilt PP)
 Gauss-broadening in eV      SIGMA  =   0.20


--------------------------------------------------------------------------------------------------------


  energy-cutoff  :      400.00
  volume of cell :    27000.00
      direct lattice vectors                 reciprocal lattice vectors
    30.000000000  0.000000000  0.000000000     0.033333333  0.000000000  0.000000000
     0.000000000 30.000000000  0.000000000     0.000000000  0.033333333  0.000000000
     0.000000000  0.000000000 30.000000000     0.000000000  0.000000000  0.033333333

  length of vectors
    30.000000000 30.000000000 30.000000000     0.033333333  0.033333333  0.033333333


 
 k-points in units of 2pi/SCALE and weight: Mo2C                                    
   0.00833333  0.00833333  0.00833333       0.250
  -0.00833333  0.00833333  0.00833333       0.250
   0.00833333 -0.00833333  0.00833333       0.250
  -0.00833333 -0.00833333  0.00833333       0.250
 
 k-points in reciprocal lattice and weights: Mo2C                                    
   0.25000000  0.25000000  0.25000000       0.250
  -0.25000000  0.25000000  0.25000000       0.250
   0.25000000 -0.25000000  0.25000000       0.250
  -0.25000000 -0.25000000  0.25000000       0.250
 
 position of ions in fractional coordinates (direct lattice) 
   0.37451101  0.53565183  0.49752380
   0.38017143  0.48753810  0.46294668
   0.38054311  0.48165566  0.52192443
   0.44415527  0.44396463  0.49640640
   0.51262440  0.42873852  0.52272556
   0.56834967  0.44842913  0.45988867
   0.52466739  0.47973854  0.43461158
   0.51945906  0.42077216  0.44136190
   0.50785706  0.54599357  0.51041717
   0.60256632  0.54581611  0.54302210
   0.58541448  0.57624064  0.49504931
   0.56891706  0.59525161  0.54877474
   0.39069745  0.50327253  0.49426183
   0.44056586  0.51001419  0.49464295
   0.51165804  0.45985325  0.50300917
   0.53204091  0.45157841  0.45672947
   0.54454478  0.49131643  0.52765656
   0.57540912  0.56539390  0.52872769
   0.46369341  0.47133743  0.50061110
   0.53736608  0.53574507  0.52570419
   0.45707344  0.54786831  0.49094470
   0.57878275  0.47366295  0.54272482
 
 position of ions in cartesian coordinates  (Angst):
  11.23533018 16.06955497 14.92571394
  11.40514291 14.62614290 13.88840035
  11.41629342 14.44966966 15.65773285
  13.32465822 13.31893891 14.89219210
  15.37873202 12.86215559 15.68176695
  17.05049025 13.45287403 13.79666012
  15.74002177 14.39215619 13.03834753
  15.58377182 12.62316488 13.24085691
  15.23571180 16.37980710 15.31251498
  18.07698968 16.37448338 16.29066298
  17.56243435 17.28721914 14.85147927
  17.06751179 17.85754836 16.46324220
  11.72092355 15.09817590 14.82785503
  13.21697594 15.30042576 14.83928842
  15.34974119 13.79559763 15.09027507
  15.96122720 13.54735241 13.70188419
  16.33634355 14.73949295 15.82969682
  17.26227367 16.96181698 15.86183065
  13.91080241 14.14012300 15.01833288
  16.12098244 16.07235222 15.77112571
  13.71220321 16.43604917 14.72834114
  17.36348243 14.20988850 16.28174456
 


--------------------------------------------------------------------------------------------------------


 k-point  1 :   0.2500 0.2500 0.2500  plane waves:  490454
 k-point  2 :  -0.2500 0.2500 0.2500  plane waves:  490454
 k-point  3 :   0.2500-0.2500 0.2500  plane waves:  490454
 k-point  4 :  -0.2500-0.2500 0.2500  plane waves:  490454

 maximum and minimum number of plane-waves per node :    490454   490454

 maximum number of plane-waves:    490454
 maximum index in each direction: 
   IXMAX=   49   IYMAX=   49   IZMAX=   48
   IXMIN=  -49   IYMIN=  -49   IZMIN=  -49

 WARNING: aliasing errors must be expected set NGX to 198 to avoid them
 WARNING: aliasing errors must be expected set NGY to 198 to avoid them
 WARNING: aliasing errors must be expected set NGZ to 196 to avoid them
 aliasing errors are usually negligible using standard VASP settings
 and one can safely disregard these warnings

 serial   3D FFT for wavefunctions
 parallel 3D FFT for charge:
    minimum data exchange during FFTs selected (reduces bandwidth)


 total amount of memory used by VASP on root node  4333708. kBytes
========================================================================

   base      :      30000. kBytes
   nonlr-proj:       2403. kBytes
   fftplans  :     924480. kBytes
   grid      :    2089440. kBytes
   one-center:         67. kBytes
   wavefun   :    1287318. kBytes
 
     INWAV:  cpu time    0.0000: real time    0.0004
 Broyden mixing: mesh for mixing (old mesh)
   NGX = 97   NGY = 97   NGZ = 97
  (NGX  =300   NGY  =300   NGZ  =300)
  gives a total of 912673 points

 initial charge density was supplied:
 charge density of overlapping atoms calculated
 number of electron      58.0000000 magnetization 
 keeping initial charge density in first step


--------------------------------------------------------------------------------------------------------


 Maximum index for non-local projection operator         2276
 Maximum index for augmentation-charges         1577 (set IRDMAX)


--------------------------------------------------------------------------------------------------------


 First call to EWALD:  gamma=   0.059
 Maximum number of real-space cells 3x 3x 3
 Maximum number of reciprocal cells 3x 3x 3

 FEWALD executed in parallel
    FEWALD:  cpu time    0.0040: real time    0.0047


----------------------------------------- Iteration    1(   1)  ---------------------------------------


    POTLOK:  cpu time   19.9370: real time   19.9209
    SETDIJ:  cpu time    0.0280: real time    0.0283
     EDDAV:  cpu time  259.8605: real time  259.6446
       DOS:  cpu time    0.0000: real time    0.0009
    --------------------------------------------
      LOOP:  cpu time  279.8285: real time  279.5988

 eigenvalue-minimisations  :   408
 total energy-change (2. order) : 0.5789048E+03  (-0.8296219E+03)
 number of electron      58.0000000 magnetization 
 augmentation part       58.0000000 magnetization 

 Free energy of the ion-electron system (eV)
  ---------------------------------------------------
  alpha Z        PSCENC =         0.51957394
  Ewald energy   TEWEN  =      6118.61585499
  -Hartree energ DENC   =     -7860.43263453
  -exchange      EXHF   =         0.00000000
  -V(xc)+E(xc)   XCENC  =       202.19707278
  PAW double counting   =      1779.70502452    -1789.20730229
  entropy T*S    EENTRO =        -0.80101216
  eigenvalues    EBANDS =      -297.67506033
  atomic energy  EATOM  =      2425.98333211
  Solvation  Ediel_sol  =         0.00000000
  ---------------------------------------------------
  free energy    TOTEN  =       578.90484903 eV

  energy without entropy =      579.70586119  energy(sigma->0) =      579.30535511


--------------------------------------------------------------------------------------------------------




----------------------------------------- Iteration    1(   2)  ---------------------------------------


     EDDAV:  cpu time  345.1815: real time  344.8952
       DOS:  cpu time    0.0000: real time    0.0008
    --------------------------------------------
      LOOP:  cpu time  345.1835: real time  344.8989

 eigenvalue-minimisations  :   579
 total energy-change (2. order) :-0.3344433E+03  (-0.3238084E+03)
 number of electron      58.0000000 magnetization 
 augmentation part       58.0000000 magnetization 

 Free energy of the ion-electron system (eV)
  ---------------------------------------------------
  alpha Z        PSCENC =         0.51957394
  Ewald energy   TEWEN  =      6118.61585499
  -Hartree energ DENC   =     -7860.43263453
  -exchange      EXHF   =         0.00000000
  -V(xc)+E(xc)   XCENC  =       202.19707278
  PAW double counting   =      1779.70502452    -1789.20730229
  entropy T*S    EENTRO =        -0.43682030
  eigenvalues    EBANDS =      -632.48257159
  atomic energy  EATOM  =      2425.98333211
  Solvation  Ediel_sol  =         0.00000000
  ---------------------------------------------------
  free energy    TOTEN  =       244.46152963 eV

  energy without entropy =      244.89834994  energy(sigma->0) =      244.67993978


--------------------------------------------------------------------------------------------------------




----------------------------------------- Iteration    1(   3)  ---------------------------------------


     EDDAV:  cpu time  302.9989: real time  302.7479
       DOS:  cpu time    0.0010: real time    0.0005
    --------------------------------------------
      LOOP:  cpu time  303.0009: real time  302.7512

 eigenvalue-minimisations  :   496
 total energy-change (2. order) :-0.2969879E+03  (-0.2881108E+03)
 number of electron      58.0000000 magnetization 
 augmentation part       58.0000000 magnetization 

 Free energy of the ion-electron system (eV)
  ---------------------------------------------------
  alpha Z        PSCENC =         0.51957394
  Ewald energy   TEWEN  =      6118.61585499
  -Hartree energ DENC   =     -7860.43263453
  -exchange      EXHF   =         0.00000000
  -V(xc)+E(xc)   XCENC  =       202.19707278
  PAW double counting   =      1779.70502452    -1789.20730229
  entropy T*S    EENTRO =        -0.00000008
  eigenvalues    EBANDS =      -929.90725287
  atomic energy  EATOM  =      2425.98333211
  Solvation  Ediel_sol  =         0.00000000
  ---------------------------------------------------
  free energy    TOTEN  =       -52.52633143 eV

  energy without entropy =      -52.52633135  energy(sigma->0) =      -52.52633139


--------------------------------------------------------------------------------------------------------




----------------------------------------- Iteration    1(   4)  ---------------------------------------


     EDDAV:  cpu time  252.8796: real time  252.6696
       DOS:  cpu time    0.0010: real time    0.0005
    --------------------------------------------
      LOOP:  cpu time  252.8806: real time  252.6729

 eigenvalue-minimisations  :   397
 total energy-change (2. order) :-0.8435514E+02  (-0.8421613E+02)
 number of electron      58.0000000 magnetization 
 augmentation part       58.0000000 magnetization 

 Free energy of the ion-electron system (eV)
  ---------------------------------------------------
  alpha Z        PSCENC =         0.51957394
  Ewald energy   TEWEN  =      6118.61585499
  -Hartree energ DENC   =     -7860.43263453
  -exchange      EXHF   =         0.00000000
  -V(xc)+E(xc)   XCENC  =       202.19707278
  PAW double counting   =      1779.70502452    -1789.20730229
  entropy T*S    EENTRO =         0.00000000
  eigenvalues    EBANDS =     -1014.26239585
  atomic energy  EATOM  =      2425.98333211
  Solvation  Ediel_sol  =         0.00000000
  ---------------------------------------------------
  free energy    TOTEN  =      -136.88147433 eV

  energy without entropy =     -136.88147433  energy(sigma->0) =     -136.88147433


--------------------------------------------------------------------------------------------------------




----------------------------------------- Iteration    1(   5)  ---------------------------------------


     EDDAV:  cpu time  286.8324: real time  286.5945
       DOS:  cpu time    0.0000: real time    0.0005
    CHARGE:  cpu time   16.5995: real time   16.5847
    MIXING:  cpu time    0.5919: real time    0.5923
    --------------------------------------------
      LOOP:  cpu time  304.0238: real time  303.7754

 eigenvalue-minimisations  :   464
 total energy-change (2. order) :-0.4702696E+01  (-0.4691859E+01)
 number of electron      58.0000000 magnetization 
 augmentation part        2.9666647 magnetization 

 Broyden mixing:
  rms(total) = 0.19572E+01    rms(broyden)= 0.19550E+01
  rms(prec ) = 0.20325E+01
  weight for this iteration     100.00

 Free energy of the ion-electron system (eV)
  ---------------------------------------------------
  alpha Z        PSCENC =         0.51957394
  Ewald energy   TEWEN  =      6118.61585499
  -Hartree energ DENC   =     -7860.43263453
  -exchange      EXHF   =         0.00000000
  -V(xc)+E(xc)   XCENC  =       202.19707278
  PAW double counting   =      1779.70502452    -1789.20730229
  entropy T*S    EENTRO =         0.00000000
  eigenvalues    EBANDS =     -1018.96509208
  atomic energy  EATOM  =      2425.98333211
  Solvation  Ediel_sol  =         0.00000000
  ---------------------------------------------------
  free energy    TOTEN  =      -141.58417056 eV

  energy without entropy =     -141.58417056  energy(sigma->0) =     -141.58417056


--------------------------------------------------------------------------------------------------------




----------------------------------------- Iteration    1(   6)  ---------------------------------------


    POTLOK:  cpu time   18.3182: real time   18.3033
    SETDIJ:  cpu time    0.0280: real time    0.0285
     EDDAV:  cpu time  257.0649: real time  256.8494
       DOS:  cpu time    0.0000: real time    0.0005
    CHARGE:  cpu time   16.4425: real time   16.4285
    MIXING:  cpu time    0.6299: real time    0.6296
    --------------------------------------------
      LOOP:  cpu time  292.4845: real time  292.2429

 eigenvalue-minimisations  :   403
 total energy-change (2. order) : 0.1017426E+02  (-0.2390013E+01)
 number of electron      57.9999998 magnetization 
 augmentation part        2.6314634 magnetization 

 Broyden mixing:
  rms(total) = 0.99388E+00    rms(broyden)= 0.99344E+00
  rms(prec ) = 0.10221E+01
  weight for this iteration     100.00

 eigenvalues of (default mixing * dielectric matrix)
  average eigenvalue GAMMA=   1.2871
  1.2871

 Free energy of the ion-electron system (eV)
  ---------------------------------------------------
  alpha Z        PSCENC =         0.51957394
  Ewald energy   TEWEN  =      6118.61585499
  -Hartree energ DENC   =     -7974.81223616
  -exchange      EXHF   =         0.00000000
  -V(xc)+E(xc)   XCENC  =       208.26148702
  PAW double counting   =      2774.41922208    -2785.27177398
  entropy T*S    EENTRO =         0.00000000
  eigenvalues    EBANDS =      -899.12536740
  atomic energy  EATOM  =      2425.98333211
  Solvation  Ediel_sol  =         0.00000000
  ---------------------------------------------------
  free energy    TOTEN  =      -131.40990739 eV

  energy without entropy =     -131.40990739  energy(sigma->0) =     -131.40990739


--------------------------------------------------------------------------------------------------------




----------------------------------------- Iteration    1(   7)  ---------------------------------------


    POTLOK:  cpu time   18.4492: real time   18.4335
    SETDIJ:  cpu time    0.0280: real time    0.0284
     EDDAV:  cpu time  267.8693: real time  267.6473
       DOS:  cpu time    0.0000: real time    0.0005
    CHARGE:  cpu time   16.4855: real time   16.4716
    MIXING:  cpu time    0.6509: real time    0.6502
    --------------------------------------------
      LOOP:  cpu time  303.4849: real time  303.4303

 eigenvalue-minimisations  :   424
 total energy-change (2. order) : 0.1759795E+01  (-0.4517634E+00)
 number of electron      57.9999998 magnetization 
 augmentation part        2.6154654 magnetization 

 Broyden mixing:
  rms(total) = 0.51309E+00    rms(broyden)= 0.51297E+00
  rms(prec ) = 0.52566E+00
  weight for this iteration     100.00

 eigenvalues of (default mixing * dielectric matrix)
  average eigenvalue GAMMA=   1.5844
  1.1218  2.0470

 Free energy of the ion-electron system (eV)
  ---------------------------------------------------
  alpha Z        PSCENC =         0.51957394
  Ewald energy   TEWEN  =      6118.61585499
  -Hartree energ DENC   =     -8037.23041097
  -exchange      EXHF   =         0.00000000
  -V(xc)+E(xc)   XCENC  =       211.33843510
  PAW double counting   =      3749.28570219    -3760.41861231
  entropy T*S    EENTRO =         0.00000000
  eigenvalues    EBANDS =      -837.74398792
  atomic energy  EATOM  =      2425.98333211
  Solvation  Ediel_sol  =         0.00000000
  ---------------------------------------------------
  free energy    TOTEN  =      -129.65011286 eV

  energy without entropy =     -129.65011286  energy(sigma->0) =     -129.65011286


--------------------------------------------------------------------------------------------------------




----------------------------------------- Iteration    1(   8)  ---------------------------------------


    POTLOK:  cpu time   18.3922: real time   18.3765
    SETDIJ:  cpu time    0.0280: real time    0.0285
     EDDAV:  cpu time  271.9707: real time  271.7442
       DOS:  cpu time    0.0010: real time    0.0005
    CHARGE:  cpu time   16.4545: real time   16.4415
    MIXING:  cpu time    0.6909: real time    0.6896
    --------------------------------------------
      LOOP:  cpu time  307.5382: real time  307.2845

 eigenvalue-minimisations  :   432
 total energy-change (2. order) : 0.4896248E+00  (-0.8540634E-01)
 number of electron      57.9999998 magnetization 
 augmentation part        2.5903374 magnetization 

 Broyden mixing:
  rms(total) = 0.14718E+00    rms(broyden)= 0.14712E+00
  rms(prec ) = 0.15504E+00
  weight for this iteration     100.00

 eigenvalues of (default mixing * dielectric matrix)
  average eigenvalue GAMMA=   1.5436
  2.3816  0.9632  1.2861

 Free energy of the ion-electron system (eV)
  ---------------------------------------------------
  alpha Z        PSCENC =         0.51957394
  Ewald energy   TEWEN  =      6118.61585499
  -Hartree energ DENC   =     -8077.85156050
  -exchange      EXHF   =         0.00000000
  -V(xc)+E(xc)   XCENC  =       213.45649482
  PAW double counting   =      4576.11770225    -4587.42620787
  entropy T*S    EENTRO =         0.00000000
  eigenvalues    EBANDS =      -798.57567775
  atomic energy  EATOM  =      2425.98333211
  Solvation  Ediel_sol  =         0.00000000
  ---------------------------------------------------
  free energy    TOTEN  =      -129.16048803 eV

  energy without entropy =     -129.16048803  energy(sigma->0) =     -129.16048803


--------------------------------------------------------------------------------------------------------




----------------------------------------- Iteration    1(   9)  ---------------------------------------


    POTLOK:  cpu time   18.3562: real time   18.3417
    SETDIJ:  cpu time    0.0280: real time    0.0283
     EDDAV:  cpu time  288.9791: real time  288.7383
       DOS:  cpu time    0.0000: real time    0.0005
    CHARGE:  cpu time   16.4525: real time   16.4396
    MIXING:  cpu time    0.7159: real time    0.7148
    --------------------------------------------
      LOOP:  cpu time  324.5337: real time  324.2665

 eigenvalue-minimisations  :   464
 total energy-change (2. order) : 0.6556691E-01  (-0.9736704E-02)
 number of electron      57.9999998 magnetization 
 augmentation part        2.5816385 magnetization 

 Broyden mixing:
  rms(total) = 0.56276E-01    rms(broyden)= 0.56246E-01
  rms(prec ) = 0.65002E-01
  weight for this iteration     100.00

 eigenvalues of (default mixing * dielectric matrix)
  average eigenvalue GAMMA=   1.5279
  2.1978  1.0610  1.0610  1.7917

 Free energy of the ion-electron system (eV)
  ---------------------------------------------------
  alpha Z        PSCENC =         0.51957394
  Ewald energy   TEWEN  =      6118.61585499
  -Hartree energ DENC   =     -8091.12228051
  -exchange      EXHF   =         0.00000000
  -V(xc)+E(xc)   XCENC  =       213.99239669
  PAW double counting   =      4797.15609424    -4808.43929833
  entropy T*S    EENTRO =         0.00000000
  eigenvalues    EBANDS =      -785.80059425
  atomic energy  EATOM  =      2425.98333211
  Solvation  Ediel_sol  =         0.00000000
  ---------------------------------------------------
  free energy    TOTEN  =      -129.09492112 eV

  energy without entropy =     -129.09492112  energy(sigma->0) =     -129.09492112


--------------------------------------------------------------------------------------------------------




----------------------------------------- Iteration    1(  10)  ---------------------------------------


    POTLOK:  cpu time   18.3842: real time   18.3693
    SETDIJ:  cpu time    0.0290: real time    0.0284
     EDDAV:  cpu time  267.0784: real time  266.8561
       DOS:  cpu time    0.0000: real time    0.0005
    CHARGE:  cpu time   16.4725: real time   16.4579
    MIXING:  cpu time    0.7709: real time    0.7710
    --------------------------------------------
      LOOP:  cpu time  302.7360: real time  302.6137

 eigenvalue-minimisations  :   422
 total energy-change (2. order) : 0.1275861E-01  (-0.2404594E-02)
 number of electron      57.9999998 magnetization 
 augmentation part        2.5872709 magnetization 

 Broyden mixing:
  rms(total) = 0.25721E-01    rms(broyden)= 0.25698E-01
  rms(prec ) = 0.35784E-01
  weight for this iteration     100.00

 eigenvalues of (default mixing * dielectric matrix)
  average eigenvalue GAMMA=   1.4898
  2.1666  2.1666  0.9851  0.9851  1.1459

 Free energy of the ion-electron system (eV)
  ---------------------------------------------------
  alpha Z        PSCENC =         0.51957394
  Ewald energy   TEWEN  =      6118.61585499
  -Hartree energ DENC   =     -8096.36964139
  -exchange      EXHF   =         0.00000000
  -V(xc)+E(xc)   XCENC  =       214.01495686
  PAW double counting   =      4792.20940493    -4803.44240126
  entropy T*S    EENTRO =         0.00000000
  eigenvalues    EBANDS =      -780.61324269
  atomic energy  EATOM  =      2425.98333211
  Solvation  Ediel_sol  =         0.00000000
  ---------------------------------------------------
  free energy    TOTEN  =      -129.08216251 eV

  energy without entropy =     -129.08216251  energy(sigma->0) =     -129.08216251


--------------------------------------------------------------------------------------------------------




----------------------------------------- Iteration    1(  11)  ---------------------------------------


    POTLOK:  cpu time   18.4232: real time   18.4077
    SETDIJ:  cpu time    0.0280: real time    0.0283
     EDDAV:  cpu time  284.3758: real time  284.1382
       DOS:  cpu time    0.0000: real time    0.0005
    CHARGE:  cpu time   16.4715: real time   16.4585
    MIXING:  cpu time    0.7909: real time    0.7900
    --------------------------------------------
      LOOP:  cpu time  320.0903: real time  319.8285

 eigenvalue-minimisations  :   456
 total energy-change (2. order) : 0.5622396E-02  (-0.7747090E-03)
 number of electron      57.9999998 magnetization 
 augmentation part        2.5832893 magnetization 

 Broyden mixing:
  rms(total) = 0.16166E-01    rms(broyden)= 0.16157E-01
  rms(prec ) = 0.25041E-01
  weight for this iteration     100.00

 eigenvalues of (default mixing * dielectric matrix)
  average eigenvalue GAMMA=   1.5460
  2.4720  2.4720  0.9497  0.9497  1.2165  1.2165

 Free energy of the ion-electron system (eV)
  ---------------------------------------------------
  alpha Z        PSCENC =         0.51957394
  Ewald energy   TEWEN  =      6118.61585499
  -Hartree energ DENC   =     -8102.07125676
  -exchange      EXHF   =         0.00000000
  -V(xc)+E(xc)   XCENC  =       214.11660748
  PAW double counting   =      4794.23839801    -4805.47027561
  entropy T*S    EENTRO =         0.00000000
  eigenvalues    EBANDS =      -775.00877428
  atomic energy  EATOM  =      2425.98333211
  Solvation  Ediel_sol  =         0.00000000
  ---------------------------------------------------
  free energy    TOTEN  =      -129.07654011 eV

  energy without entropy =     -129.07654011  energy(sigma->0) =     -129.07654011


--------------------------------------------------------------------------------------------------------




----------------------------------------- Iteration    1(  12)  ---------------------------------------


    POTLOK:  cpu time   18.3692: real time   18.3544
    SETDIJ:  cpu time    0.0280: real time    0.0284
     EDDAV:  cpu time  238.5417: real time  238.3435
       DOS:  cpu time    0.0000: real time    0.0005
    CHARGE:  cpu time   16.5055: real time   16.4910
    MIXING:  cpu time    0.8569: real time    0.8568
    --------------------------------------------
      LOOP:  cpu time  274.3033: real time  274.0779

 eigenvalue-minimisations  :   366
 total energy-change (2. order) :-0.5714149E-04  (-0.5512013E-03)
 number of electron      57.9999998 magnetization 
 augmentation part        2.5830434 magnetization 

 Broyden mixing:
  rms(total) = 0.98492E-02    rms(broyden)= 0.98447E-02
  rms(prec ) = 0.16171E-01
  weight for this iteration     100.00

 eigenvalues of (default mixing * dielectric matrix)
  average eigenvalue GAMMA=   1.5977
  2.7276  2.7276  1.3799  1.2107  1.2107  0.9639  0.9639

 Free energy of the ion-electron system (eV)
  ---------------------------------------------------
  alpha Z        PSCENC =         0.51957394
  Ewald energy   TEWEN  =      6118.61585499
  -Hartree energ DENC   =     -8108.58479331
  -exchange      EXHF   =         0.00000000
  -V(xc)+E(xc)   XCENC  =       214.20004490
  PAW double counting   =      4790.01030353    -4801.23233700
  entropy T*S    EENTRO =         0.00000000
  eigenvalues    EBANDS =      -768.58857642
  atomic energy  EATOM  =      2425.98333211
  Solvation  Ediel_sol  =         0.00000000
  ---------------------------------------------------
  free energy    TOTEN  =      -129.07659725 eV

  energy without entropy =     -129.07659725  energy(sigma->0) =     -129.07659725


--------------------------------------------------------------------------------------------------------




----------------------------------------- Iteration    1(  13)  ---------------------------------------


    POTLOK:  cpu time   18.4952: real time   18.4811
    SETDIJ:  cpu time    0.0290: real time    0.0284
     EDDAV:  cpu time  272.2106: real time  271.9839
       DOS:  cpu time    0.0000: real time    0.0005
    CHARGE:  cpu time   16.4825: real time   16.4685
    MIXING:  cpu time    0.8989: real time    0.8983
    --------------------------------------------
      LOOP:  cpu time  308.1182: real time  307.8645

 eigenvalue-minimisations  :   431
 total energy-change (2. order) :-0.6231136E-02  (-0.4826445E-03)
 number of electron      57.9999998 magnetization 
 augmentation part        2.5813831 magnetization 

 Broyden mixing:
  rms(total) = 0.59341E-02    rms(broyden)= 0.59272E-02
  rms(prec ) = 0.96654E-02
  weight for this iteration     100.00

 eigenvalues of (default mixing * dielectric matrix)
  average eigenvalue GAMMA=   1.7002
  4.0790  2.4899  1.5288  1.5288  0.9950  0.9950  0.9926  0.9926

 Free energy of the ion-electron system (eV)
  ---------------------------------------------------
  alpha Z        PSCENC =         0.51957394
  Ewald energy   TEWEN  =      6118.61585499
  -Hartree energ DENC   =     -8114.27966771
  -exchange      EXHF   =         0.00000000
  -V(xc)+E(xc)   XCENC  =       214.26732257
  PAW double counting   =      4783.85194271    -4795.07439153
  entropy T*S    EENTRO =         0.00000000
  eigenvalues    EBANDS =      -762.96679547
  atomic energy  EATOM  =      2425.98333211
  Solvation  Ediel_sol  =         0.00000000
  ---------------------------------------------------
  free energy    TOTEN  =      -129.08282839 eV

  energy without entropy =     -129.08282839  energy(sigma->0) =     -129.08282839


--------------------------------------------------------------------------------------------------------




----------------------------------------- Iteration    1(  14)  ---------------------------------------


    POTLOK:  cpu time   18.4592: real time   18.4440
    SETDIJ:  cpu time    0.0290: real time    0.0285
     EDDAV:  cpu time  272.2146: real time  271.9895
       DOS:  cpu time    0.0000: real time    0.0005
    CHARGE:  cpu time   16.4575: real time   16.4440
    MIXING:  cpu time    0.9799: real time    0.9786
    --------------------------------------------
      LOOP:  cpu time  308.1422: real time  307.9630

 eigenvalue-minimisations  :   431
 total energy-change (2. order) :-0.6564787E-02  (-0.1926923E-03)
 number of electron      57.9999998 magnetization 
 augmentation part        2.5808460 magnetization 

 Broyden mixing:
  rms(total) = 0.39969E-02    rms(broyden)= 0.39925E-02
  rms(prec ) = 0.60494E-02
  weight for this iteration     100.00

 eigenvalues of (default mixing * dielectric matrix)
  average eigenvalue GAMMA=   1.8066
  4.9626  2.4226  2.1524  1.3085  1.3085  1.0892  1.0892  0.9630  0.9630

 Free energy of the ion-electron system (eV)
  ---------------------------------------------------
  alpha Z        PSCENC =         0.51957394
  Ewald energy   TEWEN  =      6118.61585499
  -Hartree energ DENC   =     -8117.70933795
  -exchange      EXHF   =         0.00000000
  -V(xc)+E(xc)   XCENC  =       214.28994064
  PAW double counting   =      4778.77070336    -4789.99006741
  entropy T*S    EENTRO =         0.00000000
  eigenvalues    EBANDS =      -759.56939285
  atomic energy  EATOM  =      2425.98333211
  Solvation  Ediel_sol  =         0.00000000
  ---------------------------------------------------
  free energy    TOTEN  =      -129.08939318 eV

  energy without entropy =     -129.08939318  energy(sigma->0) =     -129.08939318


--------------------------------------------------------------------------------------------------------




----------------------------------------- Iteration    1(  15)  ---------------------------------------


    POTLOK:  cpu time   18.5682: real time   18.5538
    SETDIJ:  cpu time    0.0290: real time    0.0285
     EDDAV:  cpu time  271.8367: real time  271.6117
       DOS:  cpu time    0.0000: real time    0.0005
    CHARGE:  cpu time   16.4805: real time   16.4670
    MIXING:  cpu time    1.0328: real time    1.0317
    --------------------------------------------
      LOOP:  cpu time  307.9492: real time  307.6962

 eigenvalue-minimisations  :   430
 total energy-change (2. order) :-0.7707729E-02  (-0.7836711E-04)
 number of electron      57.9999998 magnetization 
 augmentation part        2.5807094 magnetization 

 Broyden mixing:
  rms(total) = 0.24005E-02    rms(broyden)= 0.23991E-02
  rms(prec ) = 0.36121E-02
  weight for this iteration     100.00

 eigenvalues of (default mixing * dielectric matrix)
  average eigenvalue GAMMA=   1.8937
  5.6275  2.7676  2.3639  1.6234  1.4038  1.0363  1.0363  1.0726  1.0028  1.0028

 Free energy of the ion-electron system (eV)
  ---------------------------------------------------
  alpha Z        PSCENC =         0.51957394
  Ewald energy   TEWEN  =      6118.61585499
  -Hartree energ DENC   =     -8119.39715715
  -exchange      EXHF   =         0.00000000
  -V(xc)+E(xc)   XCENC  =       214.28913775
  PAW double counting   =      4777.93174883    -4789.14986718
  entropy T*S    EENTRO =         0.00000000
  eigenvalues    EBANDS =      -757.88972420
  atomic energy  EATOM  =      2425.98333211
  Solvation  Ediel_sol  =         0.00000000
  ---------------------------------------------------
  free energy    TOTEN  =      -129.09710091 eV

  energy without entropy =     -129.09710091  energy(sigma->0) =     -129.09710091


--------------------------------------------------------------------------------------------------------




----------------------------------------- Iteration    1(  16)  ---------------------------------------


    POTLOK:  cpu time   18.5432: real time   18.5283
    SETDIJ:  cpu time    0.0290: real time    0.0285
     EDDAV:  cpu time  222.0352: real time  221.8513
       DOS:  cpu time    0.0000: real time    0.0005
    CHARGE:  cpu time   16.4655: real time   16.4516
    MIXING:  cpu time    1.0648: real time    1.0649
    --------------------------------------------
      LOOP:  cpu time  258.1398: real time  257.9285

 eigenvalue-minimisations  :   332
 total energy-change (2. order) :-0.5869947E-02  (-0.4369043E-04)
 number of electron      57.9999998 magnetization 
 augmentation part        2.5807651 magnetization 

 Broyden mixing:
  rms(total) = 0.13864E-02    rms(broyden)= 0.13860E-02
  rms(prec ) = 0.20959E-02
  weight for this iteration     100.00

 eigenvalues of (default mixing * dielectric matrix)
  average eigenvalue GAMMA=   1.9696
  6.4087  3.1932  2.3439  1.9350  1.3467  1.3467  1.0573  1.0160  1.0160  1.0009
  1.0009

 Free energy of the ion-electron system (eV)
  ---------------------------------------------------
  alpha Z        PSCENC =         0.51957394
  Ewald energy   TEWEN  =      6118.61585499
  -Hartree energ DENC   =     -8120.08900562
  -exchange      EXHF   =         0.00000000
  -V(xc)+E(xc)   XCENC  =       214.27986341
  PAW double counting   =      4777.82755954    -4789.04485183
  entropy T*S    EENTRO =         0.00000000
  eigenvalues    EBANDS =      -757.19529740
  atomic energy  EATOM  =      2425.98333211
  Solvation  Ediel_sol  =         0.00000000
  ---------------------------------------------------
  free energy    TOTEN  =      -129.10297085 eV

  energy without entropy =     -129.10297085  energy(sigma->0) =     -129.10297085


--------------------------------------------------------------------------------------------------------




----------------------------------------- Iteration    1(  17)  ---------------------------------------


    POTLOK:  cpu time   18.4802: real time   18.4658
    SETDIJ:  cpu time    0.0290: real time    0.0284
     EDDAV:  cpu time  224.9588: real time  224.7715
       DOS:  cpu time    0.0000: real time    0.0005
    CHARGE:  cpu time   16.3765: real time   16.3624
    MIXING:  cpu time    1.1308: real time    1.1299
    --------------------------------------------
      LOOP:  cpu time  260.9773: real time  260.7622

 eigenvalue-minimisations  :   336
 total energy-change (2. order) :-0.3178317E-02  (-0.1772088E-04)
 number of electron      57.9999998 magnetization 
 augmentation part        2.5806911 magnetization 

 Broyden mixing:
  rms(total) = 0.85793E-03    rms(broyden)= 0.85755E-03
  rms(prec ) = 0.12629E-02
  weight for this iteration     100.00

 eigenvalues of (default mixing * dielectric matrix)
  average eigenvalue GAMMA=   2.0289
  7.0889  3.5991  2.3092  2.3092  1.4819  1.4819  1.0695  1.0695  1.0162  1.0162
  0.9528  0.9528

 Free energy of the ion-electron system (eV)
  ---------------------------------------------------
  alpha Z        PSCENC =         0.51957394
  Ewald energy   TEWEN  =      6118.61585499
  -Hartree energ DENC   =     -8120.45648901
  -exchange      EXHF   =         0.00000000
  -V(xc)+E(xc)   XCENC  =       214.27516947
  PAW double counting   =      4778.07809344    -4789.29524114
  entropy T*S    EENTRO =         0.00000000
  eigenvalues    EBANDS =      -756.82644298
  atomic energy  EATOM  =      2425.98333211
  Solvation  Ediel_sol  =         0.00000000
  ---------------------------------------------------
  free energy    TOTEN  =      -129.10614917 eV

  energy without entropy =     -129.10614917  energy(sigma->0) =     -129.10614917


--------------------------------------------------------------------------------------------------------




----------------------------------------- Iteration    1(  18)  ---------------------------------------


    POTLOK:  cpu time   18.5672: real time   18.5533
    SETDIJ:  cpu time    0.0290: real time    0.0285
     EDDAV:  cpu time  212.8146: real time  212.6373
       DOS:  cpu time    0.0000: real time    0.0005
    CHARGE:  cpu time   16.6545: real time   16.6396
    MIXING:  cpu time    1.1678: real time    1.1669
    --------------------------------------------
      LOOP:  cpu time  249.2341: real time  249.0299

 eigenvalue-minimisations  :   312
 total energy-change (2. order) :-0.1684776E-02  (-0.1168003E-04)
 number of electron      57.9999998 magnetization 
 augmentation part        2.5806385 magnetization 

 Broyden mixing:
  rms(total) = 0.52999E-03    rms(broyden)= 0.52973E-03
  rms(prec ) = 0.76819E-03
  weight for this iteration     100.00

 eigenvalues of (default mixing * dielectric matrix)
  average eigenvalue GAMMA=   2.0892
  7.5975  4.2035  2.3997  2.3997  1.7284  1.3969  1.3969  1.0607  1.0607  0.9763
  0.9763  0.9816  0.9816

 Free energy of the ion-electron system (eV)
  ---------------------------------------------------
  alpha Z        PSCENC =         0.51957394
  Ewald energy   TEWEN  =      6118.61585499
  -Hartree energ DENC   =     -8120.62031704
  -exchange      EXHF   =         0.00000000
  -V(xc)+E(xc)   XCENC  =       214.27271852
  PAW double counting   =      4778.35894724    -4789.57605254
  entropy T*S    EENTRO =         0.00000000
  eigenvalues    EBANDS =      -756.66189117
  atomic energy  EATOM  =      2425.98333211
  Solvation  Ediel_sol  =         0.00000000
  ---------------------------------------------------
  free energy    TOTEN  =      -129.10783395 eV

  energy without entropy =     -129.10783395  energy(sigma->0) =     -129.10783395


--------------------------------------------------------------------------------------------------------




----------------------------------------- Iteration    1(  19)  ---------------------------------------


    POTLOK:  cpu time   18.4992: real time   18.4844
    SETDIJ:  cpu time    0.0280: real time    0.0285
     EDDAV:  cpu time  216.6801: real time  216.5001
       DOS:  cpu time    0.0000: real time    0.0005
    CHARGE:  cpu time   16.4815: real time   16.4676
    MIXING:  cpu time    1.2568: real time    1.2562
    --------------------------------------------
      LOOP:  cpu time  252.9475: real time  252.9365

 eigenvalue-minimisations  :   320
 total energy-change (2. order) :-0.9549158E-03  (-0.5221684E-05)
 number of electron      57.9999998 magnetization 
 augmentation part        2.5806311 magnetization 

 Broyden mixing:
  rms(total) = 0.31647E-03    rms(broyden)= 0.31625E-03
  rms(prec ) = 0.45091E-03
  weight for this iteration     100.00

 eigenvalues of (default mixing * dielectric matrix)
  average eigenvalue GAMMA=   2.1307
  8.0872  4.7098  2.6111  2.6111  1.6239  1.5343  1.5343  1.0884  1.0884  0.9716
  0.9798  0.9798  1.0048  1.0048

 Free energy of the ion-electron system (eV)
  ---------------------------------------------------
  alpha Z        PSCENC =         0.51957394
  Ewald energy   TEWEN  =      6118.61585499
  -Hartree energ DENC   =     -8120.69135917
  -exchange      EXHF   =         0.00000000
  -V(xc)+E(xc)   XCENC  =       214.27159452
  PAW double counting   =      4778.47793073    -4789.69515133
  entropy T*S    EENTRO =         0.00000000
  eigenvalues    EBANDS =      -756.59056466
  atomic energy  EATOM  =      2425.98333211
  Solvation  Ediel_sol  =         0.00000000
  ---------------------------------------------------
  free energy    TOTEN  =      -129.10878886 eV

  energy without entropy =     -129.10878886  energy(sigma->0) =     -129.10878886


--------------------------------------------------------------------------------------------------------




----------------------------------------- Iteration    1(  20)  ---------------------------------------


    POTLOK:  cpu time   18.4672: real time   18.4527
    SETDIJ:  cpu time    0.0300: real time    0.0284
     EDDAV:  cpu time  230.4230: real time  230.2328
       DOS:  cpu time    0.0000: real time    0.0005
    CHARGE:  cpu time   16.4435: real time   16.4296
    MIXING:  cpu time    1.4918: real time    1.4906
    --------------------------------------------
      LOOP:  cpu time  266.8574: real time  266.6377

 eigenvalue-minimisations  :   346
 total energy-change (2. order) :-0.4131760E-03  (-0.2009298E-05)
 number of electron      57.9999998 magnetization 
 augmentation part        2.5806184 magnetization 

 Broyden mixing:
  rms(total) = 0.19775E-03    rms(broyden)= 0.19766E-03
  rms(prec ) = 0.27933E-03
  weight for this iteration     100.00

 eigenvalues of (default mixing * dielectric matrix)
  average eigenvalue GAMMA=   2.1594
  8.3370  5.2392  2.7295  2.5841  2.0654  1.6520  1.3054  1.3054  0.9951  0.9827
  0.9827  1.0717  1.0717  1.0344  1.0344

 Free energy of the ion-electron system (eV)
  ---------------------------------------------------
  alpha Z        PSCENC =         0.51957394
  Ewald energy   TEWEN  =      6118.61585499
  -Hartree energ DENC   =     -8120.71632659
  -exchange      EXHF   =         0.00000000
  -V(xc)+E(xc)   XCENC  =       214.27068941
  PAW double counting   =      4778.23644936    -4789.45363685
  entropy T*S    EENTRO =         0.00000000
  eigenvalues    EBANDS =      -756.56513841
  atomic energy  EATOM  =      2425.98333211
  Solvation  Ediel_sol  =         0.00000000
  ---------------------------------------------------
  free energy    TOTEN  =      -129.10920204 eV

  energy without entropy =     -129.10920204  energy(sigma->0) =     -129.10920204


--------------------------------------------------------------------------------------------------------




----------------------------------------- Iteration    1(  21)  ---------------------------------------


    POTLOK:  cpu time   18.3502: real time   18.3357
    SETDIJ:  cpu time    0.0280: real time    0.0285
     EDDAV:  cpu time  205.1058: real time  204.9364
       DOS:  cpu time    0.0000: real time    0.0005
    CHARGE:  cpu time   16.5035: real time   16.4892
    MIXING:  cpu time    1.4108: real time    1.4093
    --------------------------------------------
      LOOP:  cpu time  241.4003: real time  241.2031

 eigenvalue-minimisations  :   296
 total energy-change (2. order) :-0.2338908E-03  (-0.9533394E-06)
 number of electron      57.9999998 magnetization 
 augmentation part        2.5806106 magnetization 

 Broyden mixing:
  rms(total) = 0.11255E-03    rms(broyden)= 0.11249E-03
  rms(prec ) = 0.16244E-03
  weight for this iteration     100.00

 eigenvalues of (default mixing * dielectric matrix)
  average eigenvalue GAMMA=   2.2225
  8.4826  5.8146  3.4522  2.6259  2.3376  1.5999  1.5999  1.4332  1.1191  1.1191
  1.0213  1.0213  1.0128  0.9784  0.9707  0.9707

 Free energy of the ion-electron system (eV)
  ---------------------------------------------------
  alpha Z        PSCENC =         0.51957394
  Ewald energy   TEWEN  =      6118.61585499
  -Hartree energ DENC   =     -8120.71921489
  -exchange      EXHF   =         0.00000000
  -V(xc)+E(xc)   XCENC  =       214.27019263
  PAW double counting   =      4778.29414081    -4789.51134187
  entropy T*S    EENTRO =         0.00000000
  eigenvalues    EBANDS =      -756.56197365
  atomic energy  EATOM  =      2425.98333211
  Solvation  Ediel_sol  =         0.00000000
  ---------------------------------------------------
  free energy    TOTEN  =      -129.10943593 eV

  energy without entropy =     -129.10943593  energy(sigma->0) =     -129.10943593


--------------------------------------------------------------------------------------------------------




----------------------------------------- Iteration    1(  22)  ---------------------------------------


    POTLOK:  cpu time   18.4942: real time   18.4799
    SETDIJ:  cpu time    0.0280: real time    0.0285
     EDDAV:  cpu time  202.0033: real time  201.8348
       DOS:  cpu time    0.0000: real time    0.0005
    CHARGE:  cpu time   16.5475: real time   16.5335
    MIXING:  cpu time    1.5088: real time    1.5073
    --------------------------------------------
      LOOP:  cpu time  238.5837: real time  238.3882

 eigenvalue-minimisations  :   290
 total energy-change (2. order) :-0.1375283E-03  (-0.3982361E-06)
 number of electron      57.9999998 magnetization 
 augmentation part        2.5806161 magnetization 

 Broyden mixing:
  rms(total) = 0.81601E-04    rms(broyden)= 0.81558E-04
  rms(prec ) = 0.10242E-03
  weight for this iteration     100.00

 eigenvalues of (default mixing * dielectric matrix)
  average eigenvalue GAMMA=   2.2153
  8.5639  6.1617  3.6325  2.4756  2.4756  1.8419  1.6850  1.3282  1.3282  1.0864
  1.0864  1.0490  1.0490  1.0128  0.9452  0.9697  0.9697

 Free energy of the ion-electron system (eV)
  ---------------------------------------------------
  alpha Z        PSCENC =         0.51957394
  Ewald energy   TEWEN  =      6118.61585499
  -Hartree energ DENC   =     -8120.73898735
  -exchange      EXHF   =         0.00000000
  -V(xc)+E(xc)   XCENC  =       214.27006144
  PAW double counting   =      4778.20901202    -4789.42620689
  entropy T*S    EENTRO =         0.00000000
  eigenvalues    EBANDS =      -756.54221372
  atomic energy  EATOM  =      2425.98333211
  Solvation  Ediel_sol  =         0.00000000
  ---------------------------------------------------
  free energy    TOTEN  =      -129.10957346 eV

  energy without entropy =     -129.10957346  energy(sigma->0) =     -129.10957346


--------------------------------------------------------------------------------------------------------




----------------------------------------- Iteration    1(  23)  ---------------------------------------


    POTLOK:  cpu time   18.5472: real time   18.5332
    SETDIJ:  cpu time    0.0280: real time    0.0284
     EDDAV:  cpu time  241.7293: real time  241.5277
       DOS:  cpu time    0.0010: real time    0.0005
    --------------------------------------------
      LOOP:  cpu time  260.3074: real time  260.0926

 eigenvalue-minimisations  :   368
 total energy-change (2. order) :-0.3923766E-04  (-0.9688039E-07)
 number of electron      57.9999998 magnetization 
 augmentation part        2.5806161 magnetization 

 Free energy of the ion-electron system (eV)
  ---------------------------------------------------
  alpha Z        PSCENC =         0.51957394
  Ewald energy   TEWEN  =      6118.61585499
  -Hartree energ DENC   =     -8120.74598901
  -exchange      EXHF   =         0.00000000
  -V(xc)+E(xc)   XCENC  =       214.27005258
  PAW double counting   =      4778.24515113    -4789.46234627
  entropy T*S    EENTRO =         0.00000000
  eigenvalues    EBANDS =      -756.53524216
  atomic energy  EATOM  =      2425.98333211
  Solvation  Ediel_sol  =         0.00000000
  ---------------------------------------------------
  free energy    TOTEN  =      -129.10961269 eV

  energy without entropy =     -129.10961269  energy(sigma->0) =     -129.10961269


--------------------------------------------------------------------------------------------------------




 average (electrostatic) potential at core
  the test charge radii are     0.5201  0.6991  0.7089  0.7215
  (the norm of the test charge is              1.0000)
       1 -42.4331       2 -42.7035       3 -42.6538       4 -44.8568       5 -42.3486
       6 -41.9096       7 -42.0199       8 -42.0699       9 -42.9105      10 -41.5841
      11 -41.6974      12 -41.7549      13 -59.1483      14 -61.6564      15 -60.1155
      16 -58.7126      17 -60.7767      18 -58.9132      19 -74.8479      20 -73.6676
      21 -80.2089      22 -79.2017
 
 
 
 E-fermi :  -4.5459     XC(G=0):  -0.1520     alpha+bet : -0.0465


 k-point     1 :       0.2500    0.2500    0.2500
  band No.  band energies     occupation 
      1     -26.3905      2.00000
      2     -25.4894      2.00000
      3     -23.5978      2.00000
      4     -22.5301      2.00000
      5     -19.7199      2.00000
      6     -18.3599      2.00000
      7     -17.2333      2.00000
      8     -16.1384      2.00000
      9     -14.8660      2.00000
     10     -13.8354      2.00000
     11     -13.1425      2.00000
     12     -12.5150      2.00000
     13     -11.6475      2.00000
     14     -11.4681      2.00000
     15     -11.0683      2.00000
     16     -10.6437      2.00000
     17     -10.4466      2.00000
     18     -10.1820      2.00000
     19     -10.1089      2.00000
     20      -9.9995      2.00000
     21      -9.3545      2.00000
     22      -9.2002      2.00000
     23      -8.8646      2.00000
     24      -8.8142      2.00000
     25      -8.3441      2.00000
     26      -6.7353      2.00000
     27      -6.4025      2.00000
     28      -5.6921      2.00000
     29      -5.4777      2.00000
     30      -1.2443      0.00000
     31      -1.0429      0.00000
     32      -0.5781      0.00000
     33      -0.2618      0.00000
     34      -0.1672      0.00000
     35      -0.0545      0.00000
     36       0.0213      0.00000
     37       0.0851      0.00000
     38       0.1086      0.00000
     39       0.1095      0.00000
     40       0.1604      0.00000
     41       0.1785      0.00000

 k-point     2 :      -0.2500    0.2500    0.2500
  band No.  band energies     occupation 
      1     -26.3905      2.00000
      2     -25.4893      2.00000
      3     -23.5978      2.00000
      4     -22.5301      2.00000
      5     -19.7199      2.00000
      6     -18.3599      2.00000
      7     -17.2333      2.00000
      8     -16.1384      2.00000
      9     -14.8660      2.00000
     10     -13.8354      2.00000
     11     -13.1425      2.00000
     12     -12.5150      2.00000
     13     -11.6474      2.00000
     14     -11.4681      2.00000
     15     -11.0683      2.00000
     16     -10.6436      2.00000
     17     -10.4466      2.00000
     18     -10.1820      2.00000
     19     -10.1089      2.00000
     20      -9.9994      2.00000
     21      -9.3545      2.00000
     22      -9.2002      2.00000
     23      -8.8646      2.00000
     24      -8.8142      2.00000
     25      -8.3441      2.00000
     26      -6.7353      2.00000
     27      -6.4025      2.00000
     28      -5.6921      2.00000
     29      -5.4777      2.00000
     30      -1.2443      0.00000
     31      -1.0429      0.00000
     32      -0.5782      0.00000
     33      -0.2619      0.00000
     34      -0.1672      0.00000
     35      -0.0541      0.00000
     36       0.0204      0.00000
     37       0.0797      0.00000
     38       0.1086      0.00000
     39       0.1180      0.00000
     40       0.1640      0.00000
     41       0.1727      0.00000

 k-point     3 :       0.2500   -0.2500    0.2500
  band No.  band energies     occupation 
      1     -26.3905      2.00000
      2     -25.4893      2.00000
      3     -23.5978      2.00000
      4     -22.5301      2.00000
      5     -19.7199      2.00000
      6     -18.3599      2.00000
      7     -17.2333      2.00000
      8     -16.1384      2.00000
      9     -14.8660      2.00000
[...]
 augmentation part        2.5808055 magnetization 

 Free energy of the ion-electron system (eV)
  ---------------------------------------------------
  alpha Z        PSCENC =         0.51957394
  Ewald energy   TEWEN  =      6081.38772110
  -Hartree energ DENC   =     -8084.70048502
  -exchange      EXHF   =         0.00000000
  -V(xc)+E(xc)   XCENC  =       214.11449462
  PAW double counting   =      4769.44630133    -4780.66345525
  entropy T*S    EENTRO =         0.00000000
  eigenvalues    EBANDS =      -755.39999638
  atomic energy  EATOM  =      2425.98333211
  Solvation  Ediel_sol  =         0.00000000
  ---------------------------------------------------
  free energy    TOTEN  =      -129.31251355 eV

  energy without entropy =     -129.31251355  energy(sigma->0) =     -129.31251355


--------------------------------------------------------------------------------------------------------




 average (electrostatic) potential at core
  the test charge radii are     0.5201  0.6991  0.7089  0.7215
  (the norm of the test charge is              1.0000)
       1 -42.3533       2 -42.5968       3 -42.6039       4 -44.8104       5 -42.3704
       6 -41.8976       7 -41.9389       8 -42.0261       9 -43.1232      10 -41.6495
      11 -41.7810      12 -41.7992      13 -59.1287      14 -61.5799      15 -60.0578
      16 -58.6832      17 -60.7814      18 -59.0155      19 -74.8180      20 -73.8154
      21 -80.0895      22 -79.1818
 
 
 
 E-fermi :  -4.5059     XC(G=0):  -0.1334     alpha+bet : -0.0465


 k-point     1 :       0.2500    0.2500    0.2500
  band No.  band energies     occupation 
      1     -26.2794      2.00000
      2     -25.4712      2.00000
      3     -23.5060      2.00000
      4     -22.5962      2.00000
      5     -19.6347      2.00000
      6     -18.3032      2.00000
      7     -17.3147      2.00000
      8     -16.1338      2.00000
      9     -14.8276      2.00000
     10     -13.8738      2.00000
     11     -13.2071      2.00000
     12     -12.5025      2.00000
     13     -11.4985      2.00000
     14     -11.4808      2.00000
     15     -10.9934      2.00000
     16     -10.6814      2.00000
     17     -10.4352      2.00000
     18     -10.1154      2.00000
     19     -10.0726      2.00000
     20      -9.9575      2.00000
     21      -9.3465      2.00000
     22      -9.1125      2.00000
     23      -8.9282      2.00000
     24      -8.7667      2.00000
     25      -8.4063      2.00000
     26      -6.7521      2.00000
     27      -6.3183      2.00000
     28      -5.7317      2.00000
     29      -5.4529      2.00000
     30      -1.1495      0.00000
     31      -1.0415      0.00000
     32      -0.4660      0.00000
     33      -0.2743      0.00000
     34      -0.1929      0.00000
     35      -0.0432      0.00000
     36       0.0460      0.00000
     37       0.1063      0.00000
     38       0.1295      0.00000
     39       0.1338      0.00000
     40       0.1798      0.00000
     41       0.1985      0.00000

 k-point     2 :      -0.2500    0.2500    0.2500
  band No.  band energies     occupation 
      1     -26.2794      2.00000
      2     -25.4712      2.00000
      3     -23.5060      2.00000
      4     -22.5962      2.00000
      5     -19.6347      2.00000
      6     -18.3032      2.00000
      7     -17.3147      2.00000
      8     -16.1338      2.00000
      9     -14.8276      2.00000
     10     -13.8738      2.00000
     11     -13.2071      2.00000
     12     -12.5025      2.00000
     13     -11.4985      2.00000
     14     -11.4808      2.00000
     15     -10.9934      2.00000
     16     -10.6814      2.00000
     17     -10.4353      2.00000
     18     -10.1154      2.00000
     19     -10.0726      2.00000
     20      -9.9575      2.00000
     21      -9.3465      2.00000
     22      -9.1125      2.00000
     23      -8.9282      2.00000
     24      -8.7667      2.00000
     25      -8.4063      2.00000
     26      -6.7521      2.00000
     27      -6.3183      2.00000
     28      -5.7317      2.00000
     29      -5.4529      2.00000
     30      -1.1495      0.00000
     31      -1.0415      0.00000
     32      -0.4660      0.00000
     33      -0.2743      0.00000
     34      -0.1928      0.00000
     35      -0.0433      0.00000
     36       0.0458      0.00000
     37       0.1025      0.00000
     38       0.1296      0.00000
     39       0.1409      0.00000
     40       0.1852      0.00000
     41       0.1923      0.00000

 k-point     3 :       0.2500   -0.2500    0.2500
  band No.  band energies     occupation 
      1     -26.2794      2.00000
      2     -25.4712      2.00000
      3     -23.5060      2.00000
      4     -22.5962      2.00000
      5     -19.6347      2.00000
      6     -18.3032      2.00000
      7     -17.3147      2.00000
      8     -16.1338      2.00000
      9     -14.8276      2.00000
     10     -13.8738      2.00000
     11     -13.2071      2.00000
     12     -12.5025      2.00000
     13     -11.4985      2.00000
     14     -11.4808      2.00000
     15     -10.9934      2.00000
     16     -10.6813      2.00000
     17     -10.4352      2.00000
     18     -10.1154      2.00000
     19     -10.0726      2.00000
     20      -9.9574      2.00000
     21      -9.3465      2.00000
     22      -9.1125      2.00000
     23      -8.9282      2.00000
     24      -8.7667      2.00000
     25      -8.4063      2.00000
     26      -6.7521      2.00000
     27      -6.3183      2.00000
     28      -5.7317      2.00000
     29      -5.4529      2.00000
     30      -1.1495      0.00000
     31      -1.0415      0.00000
     32      -0.4660      0.00000
     33      -0.2744      0.00000
     34      -0.1928      0.00000
     35      -0.0420      0.00000
     36       0.0388      0.00000
     37       0.1121      0.00000
     38       0.1265      0.00000
     39       0.1430      0.00000
     40       0.1864      0.00000
     41       0.1939      0.00000

 k-point     4 :      -0.2500   -0.2500    0.2500
  band No.  band energies     occupation 
      1     -26.2794      2.00000
      2     -25.4712      2.00000
      3     -23.5060      2.00000
      4     -22.5962      2.00000
      5     -19.6347      2.00000
      6     -18.3032      2.00000
      7     -17.3147      2.00000
      8     -16.1338      2.00000
      9     -14.8276      2.00000
     10     -13.8738      2.00000
     11     -13.2071      2.00000
     12     -12.5025      2.00000
     13     -11.4985      2.00000
     14     -11.4808      2.00000
     15     -10.9934      2.00000
     16     -10.6813      2.00000
     17     -10.4352      2.00000
     18     -10.1154      2.00000
     19     -10.0726      2.00000
     20      -9.9575      2.00000
     21      -9.3465      2.00000
     22      -9.1125      2.00000
     23      -8.9282      2.00000
     24      -8.7667      2.00000
     25      -8.4063      2.00000
     26      -6.7521      2.00000
     27      -6.3183      2.00000
     28      -5.7317      2.00000
     29      -5.4529      2.00000
     30      -1.1495      0.00000
     31      -1.0415      0.00000
     32      -0.4660      0.00000
     33      -0.2743      0.00000
     34      -0.1928      0.00000
     35      -0.0421      0.00000
     36       0.0394      0.00000
     37       0.1165      0.00000
     38       0.1280      0.00000
     39       0.1371      0.00000
     40       0.1774      0.00000
     41       0.1907      0.00000


--------------------------------------------------------------------------------------------------------


 soft charge-density along one line, spin component           1
         0         1         2         3         4         5         6         7         8         9
 total charge-density along one line
 
 pseudopotential strength for first ion, spin component:           1
 -2.353  -4.056   0.002   0.000  -0.001
 -4.056  -6.907   0.005   0.000  -0.002
  0.002   0.005  -0.332   0.000  -0.002
  0.000   0.000   0.000  -0.336   0.000
 -0.001  -0.002  -0.002   0.000  -0.335
 total augmentation occupancy for first ion, spin component:           1
  3.528  -0.635  -0.399  -0.034   0.188
 -0.635   0.129   0.073   0.006  -0.034
 -0.399   0.073   0.047   0.003  -0.019
 -0.034   0.006   0.003   0.009  -0.001
  0.188  -0.034  -0.019  -0.001   0.016


------------------------ aborting loop because EDIFF is reached ----------------------------------------


    CHARGE:  cpu time   16.3335: real time   16.3206
    FORLOC:  cpu time    5.7941: real time    5.7893
    FORNL :  cpu time   60.2288: real time   60.1785
    STRESS:  cpu time  182.1263: real time  181.9739
    FORCOR:  cpu time   23.7094: real time   23.6898
    FORHAR:  cpu time   10.4874: real time   10.4776
    MIXING:  cpu time    0.7519: real time    0.7515
    OFIELD:  cpu time    0.0000: real time    0.0000

  FORCE on cell =-STRESS in cart. coord.  units (eV):
  Direction    XX          YY          ZZ          XY          YZ          ZX
  --------------------------------------------------------------------------------------
  Alpha Z     0.51957     0.51957     0.51957
  Ewald    3252.31973  2278.33090   550.73590    61.75723    72.25643   684.37533
  Hartree  3704.45795  2769.00727  1611.23493    39.29749   135.19701   532.78015
  E(xc)    -229.51826  -229.43972  -232.16833     0.00888    -0.53758     0.77434
  Local   -7553.97283 -5627.76667 -2807.85727  -101.76867  -227.53800 -1201.94272
  n-local  -132.79762  -134.80881  -131.80181     0.67294     1.41998    -1.34105
  augment    14.50757    14.16204    14.79771    -0.04924     0.57433    -0.19695
  Kinetic   940.64443   926.59040   990.90346     0.28406    18.46167   -14.14058
  Fock        0.00000     0.00000     0.00000     0.00000     0.00000     0.00000
  -------------------------------------------------------------------------------------
  Total      -3.83946    -3.40502    -3.63585     0.20269    -0.16615     0.30852
  in kB      -0.22783    -0.20205    -0.21575     0.01203    -0.00986     0.01831
  external pressure =       -0.22 kB  Pullay stress =        0.00 kB


 VOLUME and BASIS-vectors are now :
 -----------------------------------------------------------------------------
  energy-cutoff  :      400.00
  volume of cell :    27000.00
      direct lattice vectors                 reciprocal lattice vectors
    30.000000000  0.000000000  0.000000000     0.033333333  0.000000000  0.000000000
     0.000000000 30.000000000  0.000000000     0.000000000  0.033333333  0.000000000
     0.000000000  0.000000000 30.000000000     0.000000000  0.000000000  0.033333333

  length of vectors
    30.000000000 30.000000000 30.000000000     0.033333333  0.033333333  0.033333333


 FORCES acting on ions
    electron-ion (+dipol)            ewald-force                    non-local-force                 convergence-correction
 -----------------------------------------------------------------------------------------------
   0.645E+02 -.574E+02 -.500E+01   -.669E+02 0.625E+02 0.544E+01   0.241E+01 -.511E+01 -.436E+00   0.209E-04 0.250E-04 0.187E-04
   0.544E+02 0.266E+02 0.603E+02   -.560E+02 -.287E+02 -.651E+02   0.161E+01 0.217E+01 0.476E+01   0.798E-05 0.193E-04 0.254E-04
   0.590E+02 0.370E+02 -.484E+02   -.609E+02 -.402E+02 0.525E+02   0.190E+01 0.317E+01 -.407E+01   0.107E-04 0.163E-04 0.166E-04
   0.635E+02 0.950E+02 -.187E+02   -.677E+02 -.101E+03 0.197E+02   0.421E+01 0.603E+01 -.938E+00   0.488E-05 0.241E-04 0.218E-04
   -.367E+01 0.919E+02 -.453E+02   0.438E+01 -.967E+02 0.485E+02   -.693E+00 0.475E+01 -.319E+01   -.172E-04 0.148E-04 0.565E-05
   -.742E+02 0.378E+02 0.330E+02   0.797E+02 -.390E+02 -.328E+02   -.547E+01 0.114E+01 -.252E+00   0.406E-05 -.375E-05 0.771E-05
   -.731E+01 -.290E+02 0.801E+02   0.660E+01 0.334E+02 -.835E+02   0.698E+00 -.436E+01 0.337E+01   -.918E-05 0.303E-05 0.161E-04
   0.174E+02 0.718E+02 0.533E+02   -.200E+02 -.761E+02 -.555E+02   0.249E+01 0.434E+01 0.223E+01   0.107E-04 0.213E-04 0.208E-04
   0.337E+02 -.634E+02 0.237E+02   -.395E+02 0.656E+02 -.268E+02   0.590E+01 -.217E+01 0.305E+01   -.296E-04 0.237E-04 0.247E-04
   -.785E+02 -.497E+01 -.374E+02   0.828E+02 0.203E+01 0.399E+02   -.430E+01 0.296E+01 -.245E+01   -.270E-06 0.160E-04 0.114E-04
   -.455E+02 -.543E+02 0.509E+02   0.474E+02 0.566E+02 -.555E+02   -.188E+01 -.226E+01 0.466E+01   -.120E-04 0.168E-04 -.323E-05
   -.185E+01 -.733E+02 -.482E+02   0.225E+00 0.774E+02 0.516E+02   0.160E+01 -.410E+01 -.342E+01   -.223E-04 0.200E-04 0.813E-05
   0.226E+03 0.664E+01 0.635E+01   -.227E+03 -.573E+01 -.610E+01   0.864E+00 -.912E+00 -.258E+00   0.824E-04 0.881E-04 0.564E-04
   0.177E+03 0.140E+02 0.529E+01   -.182E+03 -.143E+02 -.561E+01   0.497E+01 0.152E+00 0.309E+00   0.553E-04 0.200E-03 0.547E-04
   -.138E+02 0.155E+03 -.149E+02   0.191E+02 -.156E+03 0.153E+02   -.530E+01 0.129E+01 -.419E+00   -.759E-04 0.500E-04 0.573E-04
   -.691E+02 0.121E+03 0.192E+03   0.696E+02 -.121E+03 -.193E+03   -.495E+00 0.545E-01 0.701E+00   -.108E-03 -.206E-04 0.692E-04
   -.711E+01 0.291E+02 -.464E+02   0.445E+01 -.311E+02 0.455E+02   0.267E+01 0.195E+01 0.968E+00   -.176E-03 0.169E-03 -.257E-04
   -.151E+03 -.189E+03 -.440E+02   0.156E+03 0.192E+03 0.454E+02   -.438E+01 -.290E+01 -.138E+01   -.917E-04 0.751E-04 -.809E-05
   0.123E+03 0.180E+03 -.643E+02   -.120E+03 -.178E+03 0.682E+02   -.339E+01 -.123E+01 -.386E+01   0.241E-04 0.169E-03 0.268E-03
   -.188E+02 -.199E+03 -.271E+02   0.150E+02 0.203E+03 0.278E+02   0.380E+01 -.395E+01 -.727E+00   -.987E-04 0.115E-03 -.123E-03
   0.571E+02 -.371E+03 0.126E+03   -.405E+02 0.418E+03 -.139E+03   -.166E+02 -.470E+02 0.120E+02   0.121E-04 0.468E-04 -.120E-03
   -.354E+03 0.199E+03 -.220E+03   0.396E+03 -.222E+03 0.242E+03   -.417E+02 0.235E+02 -.223E+02   -.128E-03 0.116E-03 0.110E-06
 -----------------------------------------------------------------------------------------------
   0.511E+02 0.224E+02 0.116E+02   0.000E+00 -.853E-13 -.853E-13   -.511E+02 -.225E+02 -.116E+02   -.535E-03 0.120E-02 0.403E-03
 
 
 POSITION                                       TOTAL-FORCE (eV/Angst)
 -----------------------------------------------------------------------------------
     11.23693     16.06185     14.89758         0.008026     -0.003816      0.002902
     11.39418     14.62957     13.85248        -0.008681      0.007748     -0.007754
     11.34660     14.42704     15.62158         0.010520     -0.009366     -0.006636
     13.33277     13.29644     15.26489         0.005362      0.007585      0.098240
     15.45188     12.89583     15.70403         0.015738     -0.004125     -0.010519
     16.94265     13.28830     13.73442        -0.030174     -0.017806     -0.031978
     15.72198     14.38047     13.02318        -0.018607      0.011872     -0.008116
     15.35449     12.64337     13.24760        -0.054149      0.019319     -0.007709
     15.36003     16.40722     15.14766         0.033714     -0.008626     -0.028879
     18.12950     16.46168     16.35086         0.004479      0.024839      0.033154
     17.67402     17.46982     14.94531         0.003036      0.030221      0.028511
     16.98120     17.82509     16.55413        -0.023926     -0.006597      0.023933
     11.70592     15.07565     14.80953         0.006367     -0.002365     -0.006383
     13.21466     15.24997     14.82230        -0.011538     -0.056955     -0.012279
     15.35860     13.81140     15.10318         0.002916     -0.000633     -0.001668
     15.86773     13.51341     13.68208        -0.024853      0.005557     -0.011622
     16.39272     14.75743     15.76265         0.012076     -0.007454     -0.004424
     17.30832     17.01813     15.88252         0.001895      0.008917      0.017667
     13.91254     14.12251     15.13972         0.008578      0.010225      0.026292
     16.23250     16.08755     15.60449         0.018933     -0.002224     -0.015747
     13.72982     16.35026     14.55806         0.033781      0.001412     -0.088245
     17.38410     14.22022     16.28108         0.006511     -0.007729      0.011259
 -----------------------------------------------------------------------------------
    total drift:                                0.008413     -0.016760      0.005654


--------------------------------------------------------------------------------------------------------



  FREE ENERGIE OF THE ION-ELECTRON SYSTEM (eV)
  ---------------------------------------------------
  free  energy   TOTEN  =      -129.31251355 eV

  energy  without entropy=     -129.31251355  energy(sigma->0) =     -129.31251355
 
 d Force = 0.2045538E-03[ 0.204E-03, 0.205E-03]  d Energy = 0.2049255E-03-0.372E-06
 d Force = 0.1498978E-01[ 0.151E-01, 0.149E-01]  d Ewald  = 0.1498978E-01 0.116E-08


--------------------------------------------------------------------------------------------------------


    POTLOK:  cpu time   21.4407: real time   21.4235


--------------------------------------------------------------------------------------------------------


 NEB: the previous image is higher in energy: T
 NEB: the next image is higher in energy    : F
 NEB: only prev energy greater

 NEB: Tangent
 ----------------------------------------------
      0.03311     -0.02050      0.01279
     -0.03818     -0.00676     -0.01673
      0.03887     -0.03372     -0.01562
      0.00840     -0.03612      0.08619
      0.03886     -0.12099     -0.23721
      0.04218      0.23956     -0.20725
     -0.00090      0.30401     -0.05327
      0.07056      0.23246     -0.30077
      0.01802     -0.05215      0.02029
     -0.10048     -0.06081      0.33810
      0.05148     -0.05468      0.28486
     -0.12894     -0.05995      0.22153
      0.01427     -0.02767     -0.02207
      0.02045     -0.05817     -0.09859
      0.01349     -0.02417     -0.10855
      0.03063      0.20341     -0.17163
     -0.02904     -0.07027      0.04795
     -0.05484     -0.05764      0.25019
      0.01103     -0.04777     -0.02891
     -0.03449     -0.05532      0.13294
      0.04854     -0.09218     -0.21594
     -0.05870     -0.09115      0.08498

 NEB: forces: par spring, perp REAL, dneb     0.001220    0.182868    0.000000
 NEB: distance to prev, next image, angle between     1.135971    1.135727  167.902743
 NEB: projections on to tangent (spring, REAL)    -0.001220    0.075742

 stress matrix after NEB project (eV)
     -3.83946      0.20269      0.30852
      0.20269     -3.40502     -0.16615
      0.30852     -0.16615     -3.63585
  FORCES: max atom, RMS     0.092312    0.038989
  FORCE total and by dimension    0.182872    0.091607
  Stress total and by dimension    6.315278    3.839457
 OPT: skip step - force has converged


--------------------------------------------------------------------------------------------------------


  
 reached required accuracy - stopping structural energy minimisation
     LOOP+:  cpu time 1817.1298: real time 1815.6432
    4ORBIT:  cpu time    0.0000: real time    0.0000

 total amount of memory used by VASP on root node  4333708. kBytes
========================================================================

   base      :      30000. kBytes
   nonlr-proj:       2403. kBytes
   fftplans  :     924480. kBytes
   grid      :    2089440. kBytes
   one-center:         67. kBytes
   wavefun   :    1287318. kBytes
 
  
  
 General timing and accounting informations for this job:
 ========================================================
  
                  Total CPU time used (sec):   123659.703
                            User time (sec):   122892.750
                          System time (sec):      766.956
                         Elapsed time (sec):   123693.233
  
                   Maximum memory used (kb):     5902756.
                   Average memory used (kb):           0.
  
                          Minor page faults:    182987929
                          Major page faults:            9
                 Voluntary context switches:         7964
