 vasp.5.4.1 24Jun15 (build Jan 13 2020 12:58:22) complex                        
  
 POSCAR found type information on POSCAR  H  C  N  O 
 11/POSCAR found :  4 types and      22 ions
 scaLAPACK will be used
 LDA part: xc-table for Pade appr. of Perdew
 POSCAR found type information on POSCAR  H  C  N  O 
 00/POSCAR found :  4 types and      22 ions
 POSCAR found type information on POSCAR  H  C  N  O 
 16/POSCAR found :  4 types and      22 ions
 Jacobian:    50.2178792621697     
 POSCAR, INCAR and KPOINTS ok, starting setup
 WARNING: small aliasing (wrap around) errors must be expected
 FFT: planning ...
 WAVECAR not read
 entering main loop
       N       E                     dE             d eps       ncg     rms          rms(c)
DAV:   1     0.578904849034E+03    0.57890E+03   -0.82962E+03   408   0.485E+02
DAV:   2     0.244461529632E+03   -0.33444E+03   -0.32381E+03   579   0.980E+01
DAV:   3    -0.525263314333E+02   -0.29699E+03   -0.28811E+03   496   0.106E+02
DAV:   4    -0.136881474327E+03   -0.84355E+02   -0.84216E+02   397   0.763E+01
DAV:   5    -0.141584170560E+03   -0.47027E+01   -0.46919E+01   464   0.209E+01    0.196E+01
DAV:   6    -0.131409907389E+03    0.10174E+02   -0.23900E+01   403   0.199E+01    0.994E+00
DAV:   7    -0.129650112858E+03    0.17598E+01   -0.45176E+00   424   0.834E+00    0.513E+00
DAV:   8    -0.129160488025E+03    0.48962E+00   -0.85406E-01   432   0.406E+00    0.147E+00
DAV:   9    -0.129094921117E+03    0.65567E-01   -0.97367E-02   464   0.155E+00    0.563E-01
DAV:  10    -0.129082162509E+03    0.12759E-01   -0.24046E-02   422   0.815E-01    0.257E-01
DAV:  11    -0.129076540113E+03    0.56224E-02   -0.77471E-03   456   0.455E-01    0.162E-01
DAV:  12    -0.129076597254E+03   -0.57141E-04   -0.55120E-03   366   0.368E-01    0.985E-02
DAV:  13    -0.129082828390E+03   -0.62311E-02   -0.48264E-03   431   0.352E-01    0.593E-02
DAV:  14    -0.129089393177E+03   -0.65648E-02   -0.19269E-03   431   0.222E-01    0.400E-02
DAV:  15    -0.129097100906E+03   -0.77077E-02   -0.78367E-04   430   0.108E-01    0.240E-02
DAV:  16    -0.129102970853E+03   -0.58699E-02   -0.43690E-04   332   0.662E-02    0.139E-02
DAV:  17    -0.129106149170E+03   -0.31783E-02   -0.17721E-04   336   0.426E-02    0.858E-03
DAV:  18    -0.129107833946E+03   -0.16848E-02   -0.11680E-04   312   0.297E-02    0.530E-03
DAV:  19    -0.129108788862E+03   -0.95492E-03   -0.52217E-05   320   0.203E-02    0.316E-03
DAV:  20    -0.129109202038E+03   -0.41318E-03   -0.20093E-05   346   0.139E-02    0.198E-03
DAV:  21    -0.129109435929E+03   -0.23389E-03   -0.95334E-06   296   0.847E-03    0.113E-03
DAV:  22    -0.129109573457E+03   -0.13753E-03   -0.39824E-06   290   0.647E-03    0.816E-04
DAV:  23    -0.129109612695E+03   -0.39238E-04   -0.96880E-07   368   0.311E-03
   1 F= -.12910961E+03 E0= -.12910961E+03  d E =-.129110E+03
damped:  g(F)=  0.000E+00 g(S)=  0.000E+00 dE (1.order)= 0.000E+00
 bond charge predicted
       N       E                     dE             d eps       ncg     rms          rms(c)
DAV:   1    -0.129114834817E+03   -0.52614E-02   -0.87618E-02   337   0.159E+00    0.667E-02
DAV:   2    -0.129114963897E+03   -0.12908E-03   -0.19228E-03   464   0.212E-01    0.444E-02
DAV:   3    -0.129114949615E+03    0.14282E-04   -0.87135E-05   360   0.503E-02    0.229E-02
DAV:   4    -0.129114961936E+03   -0.12321E-04   -0.63227E-05   304   0.395E-02    0.753E-03
DAV:   5    -0.129114964841E+03   -0.29053E-05   -0.12967E-05   280   0.201E-02    0.372E-03
DAV:   6    -0.129114967162E+03   -0.23205E-05   -0.25782E-06   236   0.847E-03
   2 F= -.12911497E+03 E0= -.12911497E+03  d E =-.535447E-02
damped:  g(F)=  0.000E+00 g(S)=  0.000E+00 dE (1.order)= 0.000E+00
 bond charge predicted
       N       E                     dE             d eps       ncg     rms          rms(c)
DAV:   1    -0.129121345649E+03   -0.63808E-02   -0.24960E-01   333   0.268E+00    0.113E-01
DAV:   2    -0.129121692909E+03   -0.34726E-03   -0.53990E-03   428   0.353E-01    0.732E-02
DAV:   3    -0.129121651866E+03    0.41043E-04   -0.24500E-04   335   0.841E-02    0.386E-02
DAV:   4    -0.129121674500E+03   -0.22634E-04   -0.15438E-04   297   0.621E-02    0.130E-02
DAV:   5    -0.129121676246E+03   -0.17469E-05   -0.32408E-05   296   0.322E-02    0.607E-03
DAV:   6    -0.129121678209E+03   -0.19624E-05   -0.60110E-06   220   0.130E-02
   3 F= -.12912168E+03 E0= -.12912168E+03  d E =-.671105E-02
damped:  g(F)=  0.000E+00 g(S)=  0.000E+00 dE (1.order)= 0.000E+00
 bond charge predicted
       N       E                     dE             d eps       ncg     rms          rms(c)
DAV:   1    -0.129128002454E+03   -0.63262E-02   -0.37292E-01   330   0.322E+00    0.135E-01
DAV:   2    -0.129128498500E+03   -0.49605E-03   -0.75916E-03   428   0.410E-01    0.855E-02
DAV:   3    -0.129128467497E+03    0.31003E-04   -0.31957E-04   361   0.962E-02    0.461E-02
DAV:   4    -0.129128504251E+03   -0.36754E-04   -0.14044E-04   326   0.612E-02    0.142E-02
DAV:   5    -0.129128509016E+03   -0.47650E-05   -0.27403E-05   280   0.306E-02    0.643E-03
DAV:   6    -0.129128512362E+03   -0.33458E-05   -0.53799E-06   290   0.127E-02
   4 F= -.12912851E+03 E0= -.12912851E+03  d E =-.683415E-02
damped:  g(F)=  0.000E+00 g(S)=  0.000E+00 dE (1.order)= 0.000E+00
 bond charge predicted
       N       E                     dE             d eps       ncg     rms          rms(c)
DAV:   1    -0.129136488766E+03   -0.79797E-02   -0.53166E-01   328   0.377E+00    0.155E-01
DAV:   2    -0.129137180664E+03   -0.69190E-03   -0.99953E-03   395   0.460E-01    0.979E-02
DAV:   3    -0.129137165991E+03    0.14673E-04   -0.31956E-04   304   0.997E-02    0.544E-02
DAV:   4    -0.129137221642E+03   -0.55650E-04   -0.16304E-04   308   0.670E-02    0.125E-02
DAV:   5    -0.129137227449E+03   -0.58076E-05   -0.31539E-05   279   0.319E-02    0.659E-03
DAV:   6    -0.129137231859E+03   -0.44092E-05   -0.54674E-06   300   0.129E-02
   5 F= -.12913723E+03 E0= -.12913723E+03  d E =-.871950E-02
damped:  g(F)=  0.000E+00 g(S)=  0.000E+00 dE (1.order)= 0.000E+00
 bond charge predicted
       N       E                     dE             d eps       ncg     rms          rms(c)
DAV:   1    -0.129146694140E+03   -0.94667E-02   -0.78054E-01   328   0.460E+00    0.187E-01
DAV:   2    -0.129147744496E+03   -0.10504E-02   -0.14675E-02   428   0.562E-01    0.118E-01
DAV:   3    -0.129147712417E+03    0.32079E-04   -0.41049E-04   396   0.116E-01    0.672E-02
DAV:   4    -0.129147794592E+03   -0.82175E-04   -0.23193E-04   399   0.818E-02    0.135E-02
DAV:   5    -0.129147801624E+03   -0.70322E-05   -0.40103E-05   280   0.348E-02    0.776E-03
DAV:   6    -0.129147806463E+03   -0.48383E-05   -0.60111E-06   326   0.133E-02
   6 F= -.12914781E+03 E0= -.12914781E+03  d E =-.105746E-01
damped:  g(F)=  0.000E+00 g(S)=  0.000E+00 dE (1.order)= 0.000E+00
 bond charge predicted
       N       E                     dE             d eps       ncg     rms          rms(c)
DAV:   1    -0.129156834772E+03   -0.90331E-02   -0.10136E+00   328   0.528E+00    0.219E-01
DAV:   2    -0.129158238605E+03   -0.14038E-02   -0.19656E-02   428   0.659E-01    0.140E-01
DAV:   3    -0.129158159318E+03    0.79287E-04   -0.60558E-04   429   0.143E-01    0.797E-02
DAV:   4    -0.129158284361E+03   -0.12504E-03   -0.39643E-04   463   0.106E-01    0.198E-02
DAV:   5    -0.129158288715E+03   -0.43535E-05   -0.64806E-05   272   0.454E-02    0.108E-02
DAV:   6    -0.129158294434E+03   -0.57195E-05   -0.14596E-05   318   0.193E-02
   7 F= -.12915829E+03 E0= -.12915829E+03  d E =-.104880E-01
damped:  g(F)=  0.000E+00 g(S)=  0.000E+00 dE (1.order)= 0.000E+00
 bond charge predicted
       N       E                     dE             d eps       ncg     rms          rms(c)
DAV:   1    -0.129166673703E+03   -0.83850E-02   -0.13755E+00   328   0.615E+00    0.265E-01
DAV:   2    -0.129168535931E+03   -0.18622E-02   -0.26675E-02   396   0.766E-01    0.170E-01
DAV:   3    -0.129168422769E+03    0.11316E-03   -0.89291E-04   426   0.174E-01    0.966E-02
DAV:   4    -0.129168604803E+03   -0.18203E-03   -0.59036E-04   438   0.128E-01    0.246E-02
DAV:   5    -0.129168607543E+03   -0.27406E-05   -0.99190E-05   303   0.562E-02    0.130E-02
DAV:   6    -0.129168615063E+03   -0.75198E-05   -0.21437E-05   274   0.231E-02
   8 F= -.12916862E+03 E0= -.12916862E+03  d E =-.103206E-01
damped:  g(F)=  0.000E+00 g(S)=  0.000E+00 dE (1.order)= 0.000E+00
 bond charge predicted
       N       E                     dE             d eps       ncg     rms          rms(c)
DAV:   1    -0.129177952865E+03   -0.93453E-02   -0.17222E+00   328   0.684E+00    0.300E-01
DAV:   2    -0.129180167875E+03   -0.22150E-02   -0.32240E-02   396   0.834E-01    0.190E-01
DAV:   3    -0.129180106306E+03    0.61568E-04   -0.10741E-03   393   0.187E-01    0.105E-01
DAV:   4    -0.129180312104E+03   -0.20580E-03   -0.52409E-04   428   0.119E-01    0.236E-02
DAV:   5    -0.129180322203E+03   -0.10100E-04   -0.87903E-05   303   0.524E-02    0.112E-02
DAV:   6    -0.129180332484E+03   -0.10281E-04   -0.12534E-05   297   0.188E-02
   9 F= -.12918033E+03 E0= -.12918033E+03  d E =-.117174E-01
damped:  g(F)=  0.000E+00 g(S)=  0.000E+00 dE (1.order)= 0.000E+00
 bond charge predicted
       N       E                     dE             d eps       ncg     rms          rms(c)
DAV:   1    -0.129190837851E+03   -0.10516E-01   -0.22729E+00   328   0.784E+00    0.351E-01
DAV:   2    -0.129193611348E+03   -0.27735E-02   -0.41831E-02   405   0.956E-01    0.222E-01
DAV:   3    -0.129193545643E+03    0.65705E-04   -0.16814E-03   395   0.223E-01    0.117E-01
DAV:   4    -0.129193802375E+03   -0.25673E-03   -0.58758E-04   414   0.121E-01    0.296E-02
DAV:   5    -0.129193818047E+03   -0.15672E-04   -0.10298E-04   272   0.562E-02    0.127E-02
DAV:   6    -0.129193832696E+03   -0.14649E-04   -0.20014E-05   300   0.237E-02
  10 F= -.12919383E+03 E0= -.12919383E+03  d E =-.135002E-01
damped:  g(F)=  0.000E+00 g(S)=  0.000E+00 dE (1.order)= 0.000E+00
 bond charge predicted
       N       E                     dE             d eps       ncg     rms          rms(c)
DAV:   1    -0.129202882344E+03   -0.90643E-02   -0.31778E+00   328   0.925E+00    0.413E-01
DAV:   2    -0.129206770851E+03   -0.38885E-02   -0.58291E-02   396   0.113E+00    0.263E-01
DAV:   3    -0.129206676322E+03    0.94529E-04   -0.21447E-03   395   0.253E-01    0.140E-01
DAV:   4    -0.129207035677E+03   -0.35935E-03   -0.87977E-04   398   0.148E-01    0.335E-02
DAV:   5    -0.129207055878E+03   -0.20201E-04   -0.15194E-04   280   0.678E-02    0.156E-02
DAV:   6    -0.129207074997E+03   -0.19119E-04   -0.27539E-05   316   0.280E-02
  11 F= -.12920707E+03 E0= -.12920707E+03  d E =-.132423E-01
damped:  g(F)=  0.000E+00 g(S)=  0.000E+00 dE (1.order)= 0.000E+00
 bond charge predicted
       N       E                     dE             d eps       ncg     rms          rms(c)
DAV:   1    -0.129215318453E+03   -0.82626E-02   -0.49150E+00   328   0.115E+01    0.494E-01
DAV:   2    -0.129221944458E+03   -0.66260E-02   -0.90892E-02   396   0.140E+00    0.314E-01
DAV:   3    -0.129221680683E+03    0.26378E-03   -0.26671E-03   427   0.292E-01    0.170E-01
DAV:   4    -0.129222245091E+03   -0.56441E-03   -0.15476E-03   455   0.208E-01    0.364E-02
DAV:   5    -0.129222267958E+03   -0.22867E-04   -0.22401E-04   336   0.808E-02    0.217E-02
DAV:   6    -0.129222286526E+03   -0.18568E-04   -0.32469E-05   318   0.297E-02
  12 F= -.12922229E+03 E0= -.12922229E+03  d E =-.152115E-01
damped:  g(F)=  0.000E+00 g(S)=  0.000E+00 dE (1.order)= 0.000E+00
 bond charge predicted
       N       E                     dE             d eps       ncg     rms          rms(c)
DAV:   1    -0.129223545889E+03   -0.12779E-02   -0.71185E+00   328   0.138E+01    0.596E-01
DAV:   2    -0.129233978934E+03   -0.10433E-01   -0.14202E-01   396   0.174E+00    0.395E-01
DAV:   3    -0.129233315638E+03    0.66330E-03   -0.43560E-03   456   0.374E-01    0.231E-01
DAV:   4    -0.129234131535E+03   -0.81590E-03   -0.28694E-03   429   0.282E-01    0.523E-02
DAV:   5    -0.129234180469E+03   -0.48934E-04   -0.47920E-04   408   0.116E-01    0.297E-02
DAV:   6    -0.129234206323E+03   -0.25854E-04   -0.51874E-05   328   0.381E-02
  13 F= -.12923421E+03 E0= -.12923421E+03  d E =-.119198E-01
damped:  g(F)=  0.000E+00 g(S)=  0.000E+00 dE (1.order)= 0.000E+00
 bond charge predicted
       N       E                     dE             d eps       ncg     rms          rms(c)
DAV:   1    -0.129183087254E+03    0.51093E-01   -0.14369E+01   328   0.197E+01    0.916E-01
DAV:   2    -0.129214091238E+03   -0.31004E-01   -0.40383E-01   396   0.282E+00    0.572E-01
DAV:   3    -0.129210652709E+03    0.34385E-02   -0.10399E-02   456   0.551E-01    0.317E-01
DAV:   4    -0.129210649132E+03    0.35767E-05   -0.55718E-03   409   0.402E-01    0.694E-02
DAV:   5    -0.129210788711E+03   -0.13958E-03   -0.11181E-03   432   0.160E-01    0.432E-02
DAV:   6    -0.129210821835E+03   -0.33124E-04   -0.66872E-05   336   0.458E-02
  14 F= -.12921082E+03 E0= -.12921082E+03  d E =0.233845E-01
damped:  g(F)=  0.000E+00 g(S)=  0.000E+00 dE (1.order)= 0.000E+00
 bond charge predicted
       N       E                     dE             d eps       ncg     rms          rms(c)
DAV:   1    -0.129235798854E+03   -0.25010E-01   -0.51214E+00   328   0.111E+01    0.741E-01
DAV:   2    -0.129250144911E+03   -0.14346E-01   -0.21984E-01   394   0.206E+00    0.435E-01
DAV:   3    -0.129247552960E+03    0.25920E-02   -0.69187E-03   397   0.460E-01    0.238E-01
DAV:   4    -0.129246534989E+03    0.10180E-02   -0.38196E-03   405   0.314E-01    0.591E-02
DAV:   5    -0.129246509056E+03    0.25932E-04   -0.71286E-04   456   0.128E-01    0.334E-02
DAV:   6    -0.129246541928E+03   -0.32871E-04   -0.47834E-05   342   0.367E-02
  15 F= -.12924654E+03 E0= -.12924654E+03  d E =-.357201E-01
damped:  g(F)=  0.000E+00 g(S)=  0.000E+00 dE (1.order)= 0.000E+00
 bond charge predicted
       N       E                     dE             d eps       ncg     rms          rms(c)
DAV:   1    -0.129249864780E+03   -0.33557E-02   -0.39521E-02   363   0.992E-01    0.674E-02
DAV:   2    -0.129250071677E+03   -0.20690E-03   -0.17629E-03   464   0.181E-01    0.381E-02
DAV:   3    -0.129250116196E+03   -0.44520E-04   -0.45920E-05   281   0.385E-02    0.222E-02
DAV:   4    -0.129250198464E+03   -0.82268E-04   -0.39797E-05   266   0.313E-02    0.458E-03
DAV:   5    -0.129250233288E+03   -0.34824E-04   -0.98058E-06   336   0.141E-02    0.224E-03
DAV:   6    -0.129250254354E+03   -0.21066E-04   -0.18452E-06   266   0.582E-03
  16 F= -.12925025E+03 E0= -.12925025E+03  d E =-.371243E-02
damped:  g(F)=  0.000E+00 g(S)=  0.000E+00 dE (1.order)= 0.000E+00
 bond charge predicted
       N       E                     dE             d eps       ncg     rms          rms(c)
DAV:   1    -0.129253130499E+03   -0.28972E-02   -0.11745E-01   354   0.172E+00    0.115E-01
DAV:   2    -0.129253524674E+03   -0.39417E-03   -0.54980E-03   405   0.322E-01    0.676E-02
DAV:   3    -0.129253482901E+03    0.41772E-04   -0.15296E-04   384   0.703E-02    0.398E-02
DAV:   4    -0.129253464976E+03    0.17925E-04   -0.11931E-04   264   0.564E-02    0.940E-03
DAV:   5    -0.129253467294E+03   -0.23175E-05   -0.26383E-05   336   0.251E-02    0.491E-03
DAV:   6    -0.129253469690E+03   -0.23958E-05   -0.36933E-06   280   0.993E-03
  17 F= -.12925347E+03 E0= -.12925347E+03  d E =-.321534E-02
damped:  g(F)=  0.000E+00 g(S)=  0.000E+00 dE (1.order)= 0.000E+00
 bond charge predicted
       N       E                     dE             d eps       ncg     rms          rms(c)
DAV:   1    -0.129252871163E+03    0.59613E-03   -0.14033E-01   384   0.190E+00    0.126E-01
DAV:   2    -0.129253302763E+03   -0.43160E-03   -0.65810E-03   419   0.352E-01    0.744E-02
DAV:   3    -0.129253225667E+03    0.77096E-04   -0.19475E-04   400   0.772E-02    0.434E-02
DAV:   4    -0.129253175232E+03    0.50435E-04   -0.12328E-04   360   0.578E-02    0.107E-02
DAV:   5    -0.129253172219E+03    0.30132E-05   -0.27751E-05   336   0.261E-02    0.557E-03
DAV:   6    -0.129253176652E+03   -0.44336E-05   -0.36412E-06   362   0.104E-02
  18 F= -.12925318E+03 E0= -.12925318E+03  d E =0.293037E-03
damped:  g(F)=  0.000E+00 g(S)=  0.000E+00 dE (1.order)= 0.000E+00
 bond charge predicted
       N       E                     dE             d eps       ncg     rms          rms(c)
DAV:   1    -0.129253375462E+03   -0.20324E-03   -0.47065E-04   376   0.112E-01    0.732E-03
DAV:   2    -0.129253383769E+03   -0.83065E-05   -0.18583E-05   364   0.198E-02    0.409E-03
DAV:   3    -0.129253391301E+03   -0.75320E-05   -0.16812E-06   271   0.654E-03    0.202E-03
DAV:   4    -0.129253400626E+03   -0.93249E-05   -0.52694E-07   306   0.334E-03    0.674E-04
DAV:   5    -0.129253407685E+03   -0.70589E-05   -0.21401E-07   269   0.184E-03    0.361E-04
DAV:   6    -0.129253413163E+03   -0.54785E-05   -0.12706E-07   315   0.134E-03
  19 F= -.12925341E+03 E0= -.12925341E+03  d E =-.236511E-03
damped:  g(F)=  0.000E+00 g(S)=  0.000E+00 dE (1.order)= 0.000E+00
 bond charge predicted
       N       E                     dE             d eps       ncg     rms          rms(c)
DAV:   1    -0.129253746841E+03   -0.33916E-03   -0.17816E-03   338   0.219E-01    0.133E-02
DAV:   2    -0.129253753293E+03   -0.64528E-05   -0.76087E-05   400   0.396E-02    0.772E-03
DAV:   3    -0.129253754008E+03   -0.71492E-06   -0.39472E-06   200   0.104E-02    0.442E-03
DAV:   4    -0.129253755706E+03   -0.16974E-05   -0.21684E-06   266   0.758E-03    0.109E-03
DAV:   5    -0.129253756660E+03   -0.95437E-06   -0.50955E-07   336   0.381E-03    0.596E-04
DAV:   6    -0.129253757155E+03   -0.49459E-06   -0.48334E-08   252   0.149E-03
  20 F= -.12925376E+03 E0= -.12925376E+03  d E =-.343992E-03
damped:  g(F)=  0.000E+00 g(S)=  0.000E+00 dE (1.order)= 0.000E+00
 bond charge predicted
       N       E                     dE             d eps       ncg     rms          rms(c)
DAV:   1    -0.129254140174E+03   -0.38351E-03   -0.35208E-03   341   0.309E-01    0.185E-02
DAV:   2    -0.129254148949E+03   -0.87749E-05   -0.14370E-04   267   0.557E-02    0.107E-02
DAV:   3    -0.129254148266E+03    0.68251E-06   -0.13097E-05   336   0.163E-02    0.623E-03
DAV:   4    -0.129254146888E+03    0.13780E-05   -0.37587E-06   232   0.104E-02    0.143E-03
DAV:   5    -0.129254146874E+03    0.14223E-07   -0.88093E-07   304   0.482E-03    0.791E-04
DAV:   6    -0.129254147042E+03   -0.16782E-06   -0.11616E-07   232   0.201E-03
  21 F= -.12925415E+03 E0= -.12925415E+03  d E =-.389887E-03
damped:  g(F)=  0.000E+00 g(S)=  0.000E+00 dE (1.order)= 0.000E+00
 bond charge predicted
       N       E                     dE             d eps       ncg     rms          rms(c)
DAV:   1    -0.129254497927E+03   -0.35105E-03   -0.51795E-03   376   0.376E-01    0.219E-02
DAV:   2    -0.129254511461E+03   -0.13534E-04   -0.22156E-04   341   0.671E-02    0.132E-02
DAV:   3    -0.129254508810E+03    0.26506E-05   -0.79055E-06   272   0.161E-02    0.780E-03
DAV:   4    -0.129254506502E+03    0.23081E-05   -0.64328E-06   236   0.138E-02    0.173E-03
DAV:   5    -0.129254506662E+03   -0.15969E-06   -0.14846E-06   254   0.643E-03    0.101E-03
DAV:   6    -0.129254507060E+03   -0.39787E-06   -0.23889E-07   217   0.276E-03
  22 F= -.12925451E+03 E0= -.12925451E+03  d E =-.360018E-03
damped:  g(F)=  0.000E+00 g(S)=  0.000E+00 dE (1.order)= 0.000E+00
 bond charge predicted
       N       E                     dE             d eps       ncg     rms          rms(c)
DAV:   1    -0.129254770748E+03   -0.26409E-03   -0.62030E-03   379   0.414E-01    0.231E-02
DAV:   2    -0.129254786869E+03   -0.16121E-04   -0.25611E-04   331   0.724E-02    0.141E-02
DAV:   3    -0.129254784093E+03    0.27762E-05   -0.91149E-06   240   0.172E-02    0.840E-03
DAV:   4    -0.129254781875E+03    0.22182E-05   -0.74564E-06   228   0.149E-02    0.186E-03
DAV:   5    -0.129254782207E+03   -0.33246E-06   -0.17428E-06   216   0.693E-03    0.110E-03
DAV:   6    -0.129254782782E+03   -0.57479E-06   -0.29692E-07   225   0.298E-03
  23 F= -.12925478E+03 E0= -.12925478E+03  d E =-.275722E-03
damped:  g(F)=  0.000E+00 g(S)=  0.000E+00 dE (1.order)= 0.000E+00
 bond charge predicted
       N       E                     dE             d eps       ncg     rms          rms(c)
DAV:   1    -0.129254963424E+03   -0.18122E-03   -0.61474E-03   363   0.415E-01    0.215E-02
DAV:   2    -0.129254978634E+03   -0.15210E-04   -0.23335E-04   306   0.695E-02    0.134E-02
DAV:   3    -0.129254976441E+03    0.21931E-05   -0.81643E-06   183   0.163E-02    0.802E-03
DAV:   4    -0.129254974876E+03    0.15647E-05   -0.67070E-06   203   0.142E-02    0.176E-03
DAV:   5    -0.129254975319E+03   -0.44284E-06   -0.15865E-06   192   0.661E-03    0.105E-03
DAV:   6    -0.129254975939E+03   -0.62025E-06   -0.27310E-07   200   0.283E-03
  24 F= -.12925498E+03 E0= -.12925498E+03  d E =-.193157E-03
damped:  g(F)=  0.000E+00 g(S)=  0.000E+00 dE (1.order)= 0.000E+00
 bond charge predicted
       N       E                     dE             d eps       ncg     rms          rms(c)
DAV:   1    -0.129255149152E+03   -0.17383E-03   -0.64278E-03   365   0.426E-01    0.193E-02
DAV:   2    -0.129255162440E+03   -0.13288E-04   -0.19691E-04   273   0.659E-02    0.122E-02
DAV:   3    -0.129255161553E+03    0.88648E-06   -0.10990E-05   164   0.165E-02    0.736E-03
DAV:   4    -0.129255161226E+03    0.32717E-06   -0.65921E-06   190   0.134E-02    0.166E-03
DAV:   5    -0.129255161714E+03   -0.48758E-06   -0.17420E-06   166   0.663E-03    0.100E-03
DAV:   6    -0.129255162231E+03   -0.51710E-06   -0.43420E-07   199   0.293E-03
  25 F= -.12925516E+03 E0= -.12925516E+03  d E =-.186292E-03
damped:  g(F)=  0.000E+00 g(S)=  0.000E+00 dE (1.order)= 0.000E+00
 bond charge predicted
       N       E                     dE             d eps       ncg     rms          rms(c)
DAV:   1    -0.129255426108E+03   -0.26439E-03   -0.66650E-03   341   0.429E-01    0.163E-02
DAV:   2    -0.129255436787E+03   -0.10679E-04   -0.14831E-04   242   0.584E-02    0.102E-02
DAV:   3    -0.129255437300E+03   -0.51291E-06   -0.10876E-05   164   0.157E-02    0.604E-03
DAV:   4    -0.129255438147E+03   -0.84727E-06   -0.46466E-06   198   0.110E-02    0.130E-03
DAV:   5    -0.129255438642E+03   -0.49511E-06   -0.14123E-06   182   0.555E-03    0.871E-04
DAV:   6    -0.129255439087E+03   -0.44490E-06   -0.41522E-07   203   0.259E-03
  26 F= -.12925544E+03 E0= -.12925544E+03  d E =-.276857E-03
damped:  g(F)=  0.000E+00 g(S)=  0.000E+00 dE (1.order)= 0.000E+00
 bond charge predicted
       N       E                     dE             d eps       ncg     rms          rms(c)
DAV:   1    -0.129255894636E+03   -0.45599E-03   -0.83145E-03   333   0.473E-01    0.168E-02
DAV:   2    -0.129255906151E+03   -0.11515E-04   -0.15180E-04   281   0.583E-02    0.102E-02
DAV:   3    -0.129255907628E+03   -0.14773E-05   -0.11518E-05   208   0.156E-02    0.594E-03
DAV:   4    -0.129255909477E+03   -0.18488E-05   -0.45504E-06   250   0.105E-02    0.118E-03
DAV:   5    -0.129255909918E+03   -0.44073E-06   -0.15288E-06   208   0.528E-03    0.902E-04
DAV:   6    -0.129255910228E+03   -0.31069E-06   -0.49948E-07   240   0.250E-03
  27 F= -.12925591E+03 E0= -.12925591E+03  d E =-.471141E-03
damped:  g(F)=  0.000E+00 g(S)=  0.000E+00 dE (1.order)= 0.000E+00
 bond charge predicted
       N       E                     dE             d eps       ncg     rms          rms(c)
DAV:   1    -0.129256586375E+03   -0.67646E-03   -0.13136E-02   335   0.601E-01    0.224E-02
DAV:   2    -0.129256608199E+03   -0.21825E-04   -0.29780E-04   354   0.797E-02    0.145E-02
DAV:   3    -0.129256608428E+03   -0.22888E-06   -0.12494E-05   272   0.187E-02    0.883E-03
DAV:   4    -0.129256610159E+03   -0.17304E-05   -0.82186E-06   264   0.147E-02    0.257E-03
DAV:   5    -0.129256610185E+03   -0.26130E-07   -0.18332E-06   272   0.758E-03    0.123E-03
DAV:   6    -0.129256610331E+03   -0.14594E-06   -0.36564E-07   240   0.319E-03
  28 F= -.12925661E+03 E0= -.12925661E+03  d E =-.700102E-03
damped:  g(F)=  0.000E+00 g(S)=  0.000E+00 dE (1.order)= 0.000E+00
 bond charge predicted
       N       E                     dE             d eps       ncg     rms          rms(c)
DAV:   1    -0.129257413517E+03   -0.80333E-03   -0.22292E-02   336   0.790E-01    0.318E-02
DAV:   2    -0.129257455948E+03   -0.42431E-04   -0.60544E-04   364   0.112E-01    0.219E-02
DAV:   3    -0.129257452664E+03    0.32840E-05   -0.13965E-05   272   0.223E-02    0.138E-02
DAV:   4    -0.129257453318E+03   -0.65406E-06   -0.21920E-05   280   0.240E-02    0.427E-03
DAV:   5    -0.129257453076E+03    0.24229E-06   -0.42458E-06   264   0.116E-02    0.209E-03
DAV:   6    -0.129257453315E+03   -0.23941E-06   -0.90848E-07   256   0.469E-03
  29 F= -.12925745E+03 E0= -.12925745E+03  d E =-.842984E-03
damped:  g(F)=  0.000E+00 g(S)=  0.000E+00 dE (1.order)= 0.000E+00
 bond charge predicted
       N       E                     dE             d eps       ncg     rms          rms(c)
DAV:   1    -0.129258238775E+03   -0.78570E-03   -0.34485E-02   336   0.983E-01    0.398E-02
DAV:   2    -0.129258304440E+03   -0.65665E-04   -0.93819E-04   356   0.140E-01    0.273E-02
DAV:   3    -0.129258299542E+03    0.48981E-05   -0.22626E-05   272   0.280E-02    0.171E-02
DAV:   4    -0.129258300604E+03   -0.10622E-05   -0.34494E-05   288   0.300E-02    0.539E-03
DAV:   5    -0.129258300397E+03    0.20726E-06   -0.64316E-06   272   0.142E-02    0.272E-03
DAV:   6    -0.129258301010E+03   -0.61285E-06   -0.15420E-06   264   0.604E-03
  30 F= -.12925830E+03 E0= -.12925830E+03  d E =-.847695E-03
damped:  g(F)=  0.000E+00 g(S)=  0.000E+00 dE (1.order)= 0.000E+00
 bond charge predicted
       N       E                     dE             d eps       ncg     rms          rms(c)
DAV:   1    -0.129259130423E+03   -0.83003E-03   -0.46009E-02   335   0.112E+00    0.418E-02
DAV:   2    -0.129259208801E+03   -0.78377E-04   -0.10717E-03   372   0.149E-01    0.283E-02
DAV:   3    -0.129259205090E+03    0.37106E-05   -0.17640E-05   216   0.262E-02    0.174E-02
DAV:   4    -0.129259210736E+03   -0.56460E-05   -0.26999E-05   236   0.283E-02    0.424E-03
DAV:   5    -0.129259211423E+03   -0.68696E-06   -0.63750E-06   226   0.137E-02    0.238E-03
DAV:   6    -0.129259212350E+03   -0.92718E-06   -0.10890E-06   224   0.525E-03
  31 F= -.12925921E+03 E0= -.12925921E+03  d E =-.911340E-03
damped:  g(F)=  0.000E+00 g(S)=  0.000E+00 dE (1.order)= 0.000E+00
 bond charge predicted
       N       E                     dE             d eps       ncg     rms          rms(c)
DAV:   1    -0.129260363716E+03   -0.11523E-02   -0.62854E-02   334   0.130E+00    0.465E-02
DAV:   2    -0.129260461238E+03   -0.97522E-04   -0.12744E-03   402   0.161E-01    0.296E-02
DAV:   3    -0.129260461695E+03   -0.45669E-06   -0.17797E-05   260   0.260E-02    0.175E-02
DAV:   4    -0.129260473077E+03   -0.11382E-04   -0.27183E-05   267   0.269E-02    0.405E-03
DAV:   5    -0.129260473734E+03   -0.65742E-06   -0.51000E-06   272   0.123E-02    0.250E-03
DAV:   6    -0.129260474368E+03   -0.63389E-06   -0.71768E-07   216   0.429E-03
  32 F= -.12926047E+03 E0= -.12926047E+03  d E =-.126202E-02
damped:  g(F)=  0.000E+00 g(S)=  0.000E+00 dE (1.order)= 0.000E+00
 bond charge predicted
       N       E                     dE             d eps       ncg     rms          rms(c)
DAV:   1    -0.129261945580E+03   -0.14718E-02   -0.97780E-02   334   0.163E+00    0.596E-02
DAV:   2    -0.129262109142E+03   -0.16356E-03   -0.21488E-03   426   0.210E-01    0.384E-02
DAV:   3    -0.129262105767E+03    0.33753E-05   -0.32270E-05   325   0.338E-02    0.227E-02
DAV:   4    -0.129262116200E+03   -0.10433E-04   -0.34664E-05   272   0.334E-02    0.374E-03
DAV:   5    -0.129262117218E+03   -0.10181E-05   -0.72165E-06   288   0.142E-02    0.274E-03
DAV:   6    -0.129262117684E+03   -0.46605E-06   -0.82639E-07   272   0.479E-03
  33 F= -.12926212E+03 E0= -.12926212E+03  d E =-.164332E-02
damped:  g(F)=  0.000E+00 g(S)=  0.000E+00 dE (1.order)= 0.000E+00
 bond charge predicted
       N       E                     dE             d eps       ncg     rms          rms(c)
DAV:   1    -0.129263585299E+03   -0.14681E-02   -0.14854E-01   329   0.201E+00    0.743E-02
DAV:   2    -0.129263836932E+03   -0.25163E-03   -0.33470E-03   397   0.263E-01    0.481E-02
DAV:   3    -0.129263831503E+03    0.54292E-05   -0.49395E-05   248   0.430E-02    0.288E-02
DAV:   4    -0.129263844193E+03   -0.12690E-04   -0.72192E-05   313   0.449E-02    0.591E-03
DAV:   5    -0.129263845744E+03   -0.15511E-05   -0.14198E-05   272   0.204E-02    0.381E-03
DAV:   6    -0.129263846853E+03   -0.11084E-05   -0.18917E-06   238   0.706E-03
  34 F= -.12926385E+03 E0= -.12926385E+03  d E =-.172917E-02
damped:  g(F)=  0.000E+00 g(S)=  0.000E+00 dE (1.order)= 0.000E+00
 bond charge predicted
       N       E                     dE             d eps       ncg     rms          rms(c)
DAV:   1    -0.129265580788E+03   -0.17350E-02   -0.19631E-01   328   0.230E+00    0.830E-02
DAV:   2    -0.129265890984E+03   -0.31020E-03   -0.40600E-03   396   0.286E-01    0.528E-02
DAV:   3    -0.129265893569E+03   -0.25847E-05   -0.60626E-05   268   0.459E-02    0.309E-02
DAV:   4    -0.129265920554E+03   -0.26985E-04   -0.62257E-05   267   0.440E-02    0.564E-03
DAV:   5    -0.129265922747E+03   -0.21929E-05   -0.13885E-05   254   0.199E-02    0.362E-03
DAV:   6    -0.129265923874E+03   -0.11276E-05   -0.17595E-06   200   0.684E-03
  35 F= -.12926592E+03 E0= -.12926592E+03  d E =-.207702E-02
damped:  g(F)=  0.000E+00 g(S)=  0.000E+00 dE (1.order)= 0.000E+00
 bond charge predicted
       N       E                     dE             d eps       ncg     rms          rms(c)
DAV:   1    -0.129268067515E+03   -0.21448E-02   -0.28090E-01   328   0.276E+00    0.101E-01
DAV:   2    -0.129268535466E+03   -0.46795E-03   -0.61967E-03   396   0.354E-01    0.671E-02
DAV:   3    -0.129268530640E+03    0.48259E-05   -0.10480E-04   368   0.601E-02    0.403E-02
DAV:   4    -0.129268568896E+03   -0.38255E-04   -0.10292E-04   232   0.570E-02    0.759E-03
DAV:   5    -0.129268570937E+03   -0.20407E-05   -0.22783E-05   336   0.252E-02    0.488E-03
DAV:   6    -0.129268571888E+03   -0.95108E-06   -0.22391E-06   240   0.779E-03
  36 F= -.12926857E+03 E0= -.12926857E+03  d E =-.264801E-02
damped:  g(F)=  0.000E+00 g(S)=  0.000E+00 dE (1.order)= 0.000E+00
 bond charge predicted
       N       E                     dE             d eps       ncg     rms          rms(c)
DAV:   1    -0.129270681097E+03   -0.21102E-02   -0.41287E-01   329   0.334E+00    0.122E-01
DAV:   2    -0.129271368713E+03   -0.68762E-03   -0.90135E-03   396   0.427E-01    0.805E-02
DAV:   3    -0.129271359076E+03    0.96368E-05   -0.14409E-04   333   0.706E-02    0.482E-02
DAV:   4    -0.129271418109E+03   -0.59033E-04   -0.14774E-04   300   0.678E-02    0.921E-03
DAV:   5    -0.129271420831E+03   -0.27217E-05   -0.32185E-05   304   0.302E-02    0.567E-03
DAV:   6    -0.129271422426E+03   -0.15954E-05   -0.34177E-06   244   0.965E-03
  37 F= -.12927142E+03 E0= -.12927142E+03  d E =-.285054E-02
damped:  g(F)=  0.000E+00 g(S)=  0.000E+00 dE (1.order)= 0.000E+00
 bond charge predicted
       N       E                     dE             d eps       ncg     rms          rms(c)
DAV:   1    -0.129273983637E+03   -0.25628E-02   -0.58710E-01   328   0.397E+00    0.145E-01
DAV:   2    -0.129274953649E+03   -0.97001E-03   -0.12506E-02   396   0.503E-01    0.923E-02
DAV:   3    -0.129274956314E+03   -0.26652E-05   -0.18340E-04   348   0.788E-02    0.539E-02
DAV:   4    -0.129275038552E+03   -0.82238E-04   -0.17808E-04   259   0.770E-02    0.859E-03
DAV:   5    -0.129275043485E+03   -0.49332E-05   -0.40908E-05   368   0.332E-02    0.645E-03
DAV:   6    -0.129275045156E+03   -0.16704E-05   -0.38881E-06   252   0.103E-02
  38 F= -.12927505E+03 E0= -.12927505E+03  d E =-.362273E-02
damped:  g(F)=  0.000E+00 g(S)=  0.000E+00 dE (1.order)= 0.000E+00
 bond charge predicted
       N       E                     dE             d eps       ncg     rms          rms(c)
DAV:   1    -0.129277436764E+03   -0.23933E-02   -0.85932E-01   328   0.481E+00    0.177E-01
DAV:   2    -0.129278865103E+03   -0.14283E-02   -0.18515E-02   396   0.611E-01    0.113E-01
DAV:   3    -0.129278864819E+03    0.28389E-06   -0.27931E-04   365   0.961E-02    0.662E-02
DAV:   4    -0.129278988064E+03   -0.12325E-03   -0.25669E-04   331   0.906E-02    0.110E-02
DAV:   5    -0.129278995297E+03   -0.72326E-05   -0.49046E-05   304   0.368E-02    0.824E-03
DAV:   6    -0.129278998177E+03   -0.28804E-05   -0.49053E-06   250   0.119E-02
  39 F= -.12927900E+03 E0= -.12927900E+03  d E =-.395302E-02
damped:  g(F)=  0.000E+00 g(S)=  0.000E+00 dE (1.order)= 0.000E+00
 bond charge predicted
       N       E                     dE             d eps       ncg     rms          rms(c)
DAV:   1    -0.129281691609E+03   -0.26963E-02   -0.11670E+00   328   0.561E+00    0.205E-01
DAV:   2    -0.129283665159E+03   -0.19735E-02   -0.25510E-02   396   0.716E-01    0.135E-01
DAV:   3    -0.129283643108E+03    0.22050E-04   -0.42753E-04   424   0.117E-01    0.809E-02
DAV:   4    -0.129283823658E+03   -0.18055E-03   -0.34992E-04   346   0.103E-01    0.152E-02
DAV:   5    -0.129283832685E+03   -0.90274E-05   -0.63911E-05   368   0.415E-02    0.102E-02
DAV:   6    -0.129283835684E+03   -0.29988E-05   -0.59949E-06   296   0.130E-02
  40 F= -.12928384E+03 E0= -.12928384E+03  d E =-.483751E-02
damped:  g(F)=  0.000E+00 g(S)=  0.000E+00 dE (1.order)= 0.000E+00
 bond charge predicted
       N       E                     dE             d eps       ncg     rms          rms(c)
DAV:   1    -0.129286246622E+03   -0.24139E-02   -0.16489E+00   328   0.664E+00    0.243E-01
DAV:   2    -0.129289035910E+03   -0.27893E-02   -0.34916E-02   420   0.836E-01    0.155E-01
DAV:   3    -0.129289018665E+03    0.17245E-04   -0.53213E-04   420   0.128E-01    0.898E-02
DAV:   4    -0.129289269728E+03   -0.25106E-03   -0.40514E-04   396   0.113E-01    0.155E-02
DAV:   5    -0.129289280390E+03   -0.10662E-04   -0.71400E-05   304   0.448E-02    0.108E-02
DAV:   6    -0.129289284799E+03   -0.44092E-05   -0.75634E-06   266   0.148E-02
  41 F= -.12928928E+03 E0= -.12928928E+03  d E =-.544911E-02
damped:  g(F)=  0.000E+00 g(S)=  0.000E+00 dE (1.order)= 0.000E+00
 bond charge predicted
       N       E                     dE             d eps       ncg     rms          rms(c)
DAV:   1    -0.129290964509E+03   -0.16841E-02   -0.23780E+00   328   0.795E+00    0.294E-01
DAV:   2    -0.129295058402E+03   -0.40939E-02   -0.51232E-02   404   0.101E+00    0.187E-01
DAV:   3    -0.129295009611E+03    0.48791E-04   -0.76893E-04   428   0.153E-01    0.110E-01
DAV:   4    -0.129295329137E+03   -0.31953E-03   -0.56216E-04   372   0.135E-01    0.178E-02
DAV:   5    -0.129295350146E+03   -0.21009E-04   -0.11523E-04   400   0.537E-02    0.143E-02
DAV:   6    -0.129295355831E+03   -0.56849E-05   -0.69209E-06   284   0.144E-02
  42 F= -.12929536E+03 E0= -.12929536E+03  d E =-.607103E-02
damped:  g(F)=  0.000E+00 g(S)=  0.000E+00 dE (1.order)= 0.000E+00
 bond charge predicted
       N       E                     dE             d eps       ncg     rms          rms(c)
DAV:   1    -0.129295347853E+03    0.22930E-05   -0.33291E+00   328   0.941E+00    0.344E-01
DAV:   2    -0.129301394142E+03   -0.60463E-02   -0.75623E-02   396   0.122E+00    0.234E-01
DAV:   3    -0.129301207226E+03    0.18692E-03   -0.12509E-03   464   0.193E-01    0.141E-01
DAV:   4    -0.129301624334E+03   -0.41711E-03   -0.10034E-03   363   0.174E-01    0.248E-02
DAV:   5    -0.129301649991E+03   -0.25657E-04   -0.20196E-04   400   0.699E-02    0.177E-02
DAV:   6    -0.129301657054E+03   -0.70626E-05   -0.12863E-05   280   0.182E-02
  43 F= -.12930166E+03 E0= -.12930166E+03  d E =-.630122E-02
damped:  g(F)=  0.000E+00 g(S)=  0.000E+00 dE (1.order)= 0.000E+00
 bond charge predicted
       N       E                     dE             d eps       ncg     rms          rms(c)
DAV:   1    -0.129296109713E+03    0.55403E-02   -0.48558E+00   328   0.113E+01    0.453E-01
DAV:   2    -0.129306016451E+03   -0.99067E-02   -0.12513E-01   394   0.156E+00    0.297E-01
DAV:   3    -0.129305506539E+03    0.50991E-03   -0.20410E-03   464   0.248E-01    0.182E-01
DAV:   4    -0.129305826442E+03   -0.31990E-03   -0.16341E-03   386   0.225E-01    0.331E-02
DAV:   5    -0.129305882239E+03   -0.55797E-04   -0.36185E-04   456   0.913E-02    0.248E-02
DAV:   6    -0.129305895086E+03   -0.12847E-04   -0.15128E-05   320   0.207E-02
  44 F= -.12930590E+03 E0= -.12930590E+03  d E =-.423803E-02
damped:  g(F)=  0.000E+00 g(S)=  0.000E+00 dE (1.order)= 0.000E+00
 bond charge predicted
       N       E                     dE             d eps       ncg     rms          rms(c)
DAV:   1    -0.129310022800E+03   -0.41406E-02   -0.23675E-01   330   0.239E+00    0.164E-01
DAV:   2    -0.129310812672E+03   -0.78987E-03   -0.10899E-02   393   0.445E-01    0.946E-02
DAV:   3    -0.129310720972E+03    0.91700E-04   -0.30385E-04   398   0.939E-02    0.551E-02
DAV:   4    -0.129310694565E+03    0.26407E-04   -0.19181E-04   272   0.710E-02    0.128E-02
DAV:   5    -0.129310702014E+03   -0.74492E-05   -0.43111E-05   336   0.310E-02    0.648E-03
DAV:   6    -0.129310706866E+03   -0.48514E-05   -0.51304E-06   282   0.117E-02
  45 F= -.12931071E+03 E0= -.12931071E+03  d E =-.481178E-02
damped:  g(F)=  0.000E+00 g(S)=  0.000E+00 dE (1.order)= 0.000E+00
 bond charge predicted
       N       E                     dE             d eps       ncg     rms          rms(c)
DAV:   1    -0.129307305349E+03    0.33967E-02   -0.29866E-01   334   0.273E+00    0.185E-01
DAV:   2    -0.129308240296E+03   -0.93495E-03   -0.13946E-02   403   0.501E-01    0.107E-01
DAV:   3    -0.129308072536E+03    0.16776E-03   -0.39285E-04   400   0.107E-01    0.617E-02
DAV:   4    -0.129307982029E+03    0.90506E-04   -0.25534E-04   360   0.819E-02    0.147E-02
DAV:   5    -0.129307978442E+03    0.35875E-05   -0.50062E-05   336   0.346E-02    0.761E-03
DAV:   6    -0.129307985199E+03   -0.67570E-05   -0.68351E-06   328   0.136E-02
  46 F= -.12930799E+03 E0= -.12930799E+03  d E =0.272167E-02
damped:  g(F)=  0.000E+00 g(S)=  0.000E+00 dE (1.order)= 0.000E+00
 bond charge predicted
       N       E                     dE             d eps       ncg     rms          rms(c)
DAV:   1    -0.129309365270E+03   -0.13868E-02   -0.11455E-02   367   0.525E-01    0.370E-02
DAV:   2    -0.129309413725E+03   -0.48455E-04   -0.50515E-04   452   0.961E-02    0.207E-02
DAV:   3    -0.129309420503E+03   -0.67778E-05   -0.12829E-05   294   0.201E-02    0.115E-02
DAV:   4    -0.129309436550E+03   -0.16048E-04   -0.11017E-05   297   0.167E-02    0.228E-03
DAV:   5    -0.129309443995E+03   -0.74446E-05   -0.25030E-06   336   0.746E-03    0.127E-03
DAV:   6    -0.129309448119E+03   -0.41240E-05   -0.37234E-07   282   0.288E-03
  47 F= -.12930945E+03 E0= -.12930945E+03  d E =-.146292E-02
damped:  g(F)=  0.000E+00 g(S)=  0.000E+00 dE (1.order)= 0.000E+00
 bond charge predicted
       N       E                     dE             d eps       ncg     rms          rms(c)
DAV:   1    -0.129310975089E+03   -0.15311E-02   -0.35949E-02   342   0.936E-01    0.641E-02
DAV:   2    -0.129311084664E+03   -0.10958E-03   -0.16253E-03   392   0.173E-01    0.369E-02
DAV:   3    -0.129311067414E+03    0.17251E-04   -0.43219E-05   334   0.370E-02    0.210E-02
DAV:   4    -0.129311058482E+03    0.89316E-05   -0.36510E-05   264   0.313E-02    0.450E-03
DAV:   5    -0.129311058644E+03   -0.16220E-06   -0.83128E-06   336   0.140E-02    0.259E-03
DAV:   6    -0.129311059505E+03   -0.86126E-06   -0.11563E-06   264   0.549E-03
  48 F= -.12931106E+03 E0= -.12931106E+03  d E =-.161139E-02
damped:  g(F)=  0.000E+00 g(S)=  0.000E+00 dE (1.order)= 0.000E+00
 bond charge predicted
       N       E                     dE             d eps       ncg     rms          rms(c)
DAV:   1    -0.129311472098E+03   -0.41345E-03   -0.51449E-02   400   0.113E+00    0.752E-02
DAV:   2    -0.129311623035E+03   -0.15094E-03   -0.23890E-03   407   0.210E-01    0.445E-02
DAV:   3    -0.129311590465E+03    0.32570E-04   -0.62305E-05   304   0.446E-02    0.257E-02
DAV:   4    -0.129311570567E+03    0.19899E-04   -0.55456E-05   324   0.385E-02    0.568E-03
DAV:   5    -0.129311571796E+03   -0.12288E-05   -0.12839E-05   304   0.178E-02    0.318E-03
DAV:   6    -0.129311574690E+03   -0.28938E-05   -0.18874E-06   314   0.700E-03
  49 F= -.12931157E+03 E0= -.12931157E+03  d E =-.515184E-03
damped:  g(F)=  0.000E+00 g(S)=  0.000E+00 dE (1.order)= 0.000E+00
 bond charge predicted
       N       E                     dE             d eps       ncg     rms          rms(c)
DAV:   1    -0.129311598876E+03   -0.27080E-04   -0.19619E-05   267   0.225E-02    0.133E-03
DAV:   2    -0.129311601832E+03   -0.29563E-05   -0.12151E-06   270   0.577E-03    0.882E-04
DAV:   3    -0.129311605089E+03   -0.32568E-05   -0.29918E-07   266   0.224E-03    0.600E-04
DAV:   4    -0.129311610264E+03   -0.51749E-05   -0.21244E-07   266   0.159E-03    0.257E-04
DAV:   5    -0.129311612737E+03   -0.24725E-05   -0.83243E-08   301   0.102E-03    0.212E-04
DAV:   6    -0.129311615481E+03   -0.27446E-05   -0.71847E-08   234   0.912E-04
  50 F= -.12931162E+03 E0= -.12931162E+03  d E =-.407917E-04
damped:  g(F)=  0.000E+00 g(S)=  0.000E+00 dE (1.order)= 0.000E+00
 bond charge predicted
       N       E                     dE             d eps       ncg     rms          rms(c)
DAV:   1    -0.129311653604E+03   -0.40867E-04   -0.78530E-05   299   0.455E-02    0.212E-03
DAV:   2    -0.129311654452E+03   -0.84851E-06   -0.43319E-06   272   0.110E-02    0.133E-03
DAV:   3    -0.129311654856E+03   -0.40332E-06   -0.37802E-07   236   0.331E-03    0.956E-04
DAV:   4    -0.129311655552E+03   -0.69645E-06   -0.71361E-08   246   0.189E-03    0.255E-04
DAV:   5    -0.129311655832E+03   -0.28003E-06    0.16620E-08   272   0.866E-04    0.165E-04
DAV:   6    -0.129311656089E+03   -0.25675E-06    0.42945E-08   210   0.495E-04
  51 F= -.12931166E+03 E0= -.12931166E+03  d E =-.406077E-04
damped:  g(F)=  0.000E+00 g(S)=  0.000E+00 dE (1.order)= 0.000E+00
 bond charge predicted
       N       E                     dE             d eps       ncg     rms          rms(c)
DAV:   1    -0.129311706393E+03   -0.50561E-04   -0.16908E-04   368   0.665E-02    0.312E-03
DAV:   2    -0.129311707096E+03   -0.70300E-06   -0.72364E-06   218   0.137E-02    0.198E-03
DAV:   3    -0.129311707227E+03   -0.13047E-06   -0.62340E-07   272   0.433E-03    0.130E-03
DAV:   4    -0.129311707406E+03   -0.17934E-06   -0.14175E-07   200   0.245E-03    0.337E-04
DAV:   5    -0.129311707480E+03   -0.74349E-07    0.30025E-09   272   0.112E-03    0.203E-04
DAV:   6    -0.129311707566E+03   -0.85489E-07    0.36620E-08   200   0.605E-04
  52 F= -.12931171E+03 E0= -.12931171E+03  d E =-.514768E-04
damped:  g(F)=  0.000E+00 g(S)=  0.000E+00 dE (1.order)= 0.000E+00
 bond charge predicted
       N       E                     dE             d eps       ncg     rms          rms(c)
DAV:   1    -0.129311769547E+03   -0.62067E-04   -0.27745E-04   336   0.854E-02    0.384E-03
DAV:   2    -0.129311770475E+03   -0.92801E-06   -0.12102E-05   246   0.177E-02    0.247E-03
DAV:   3    -0.129311770505E+03   -0.30418E-07   -0.11770E-06   252   0.571E-03    0.162E-03
DAV:   4    -0.129311770480E+03    0.25120E-07   -0.30527E-07   244   0.315E-03    0.418E-04
DAV:   5    -0.129311770498E+03   -0.17522E-07   -0.49790E-08   174   0.151E-03    0.255E-04
DAV:   6    -0.129311770536E+03   -0.38124E-07    0.16775E-08   201   0.804E-04
  53 F= -.12931177E+03 E0= -.12931177E+03  d E =-.629701E-04
damped:  g(F)=  0.000E+00 g(S)=  0.000E+00 dE (1.order)= 0.000E+00
 bond charge predicted
       N       E                     dE             d eps       ncg     rms          rms(c)
DAV:   1    -0.129311842371E+03   -0.71874E-04   -0.39654E-04   303   0.102E-01    0.444E-03
DAV:   2    -0.129311843327E+03   -0.95599E-06   -0.13554E-05   211   0.173E-02    0.290E-03
DAV:   3    -0.129311843324E+03    0.38426E-08   -0.13637E-06   253   0.586E-03    0.182E-03
DAV:   4    -0.129311843277E+03    0.46849E-07   -0.37601E-07   202   0.336E-03    0.490E-04
DAV:   5    -0.129311843295E+03   -0.18323E-07   -0.66832E-08   165   0.170E-03    0.271E-04
DAV:   6    -0.129311843339E+03   -0.43526E-07    0.15297E-08   199   0.864E-04
  54 F= -.12931184E+03 E0= -.12931184E+03  d E =-.728027E-04
damped:  g(F)=  0.000E+00 g(S)=  0.000E+00 dE (1.order)= 0.000E+00
 bond charge predicted
       N       E                     dE             d eps       ncg     rms          rms(c)
DAV:   1    -0.129311923431E+03   -0.80136E-04   -0.50921E-04   303   0.115E-01    0.482E-03
DAV:   2    -0.129311924618E+03   -0.11866E-05   -0.16361E-05   208   0.191E-02    0.316E-03
DAV:   3    -0.129311924641E+03   -0.23269E-07   -0.16376E-06   164   0.645E-03    0.199E-03
DAV:   4    -0.129311924624E+03    0.17149E-07   -0.45444E-07   205   0.368E-03    0.524E-04
DAV:   5    -0.129311924654E+03   -0.30045E-07   -0.88996E-08   164   0.186E-03    0.296E-04
DAV:   6    -0.129311924711E+03   -0.56814E-07    0.96341E-09   199   0.941E-04
  55 F= -.12931192E+03 E0= -.12931192E+03  d E =-.813725E-04
damped:  g(F)=  0.000E+00 g(S)=  0.000E+00 dE (1.order)= 0.000E+00
 bond charge predicted
       N       E                     dE             d eps       ncg     rms          rms(c)
DAV:   1    -0.129312022929E+03   -0.98275E-04   -0.75764E-04   296   0.141E-01    0.560E-03
DAV:   2    -0.129312024598E+03   -0.16691E-05   -0.22368E-05   200   0.224E-02    0.367E-03
DAV:   3    -0.129312024675E+03   -0.77121E-07   -0.22272E-06   164   0.756E-03    0.231E-03
DAV:   4    -0.129312024705E+03   -0.29936E-07   -0.62033E-07   190   0.427E-03    0.588E-04
DAV:   5    -0.129312024748E+03   -0.43166E-07   -0.13930E-07   164   0.216E-03    0.340E-04
DAV:   6    -0.129312024813E+03   -0.65090E-07   -0.59517E-09   190   0.108E-03
  56 F= -.12931202E+03 E0= -.12931202E+03  d E =-.100102E-03
damped:  g(F)=  0.000E+00 g(S)=  0.000E+00 dE (1.order)= 0.000E+00
 bond charge predicted
       N       E                     dE             d eps       ncg     rms          rms(c)
DAV:   1    -0.129312147444E+03   -0.12270E-03   -0.11076E-03   328   0.169E-01    0.669E-03
DAV:   2    -0.129312149315E+03   -0.18714E-05   -0.25414E-05   200   0.231E-02    0.427E-03
DAV:   3    -0.129312149405E+03   -0.90002E-07   -0.23220E-06   164   0.758E-03    0.245E-03
DAV:   4    -0.129312149518E+03   -0.11311E-06   -0.66048E-07   164   0.423E-03    0.575E-04
DAV:   5    -0.129312149581E+03   -0.62557E-07   -0.16515E-07   164   0.212E-03    0.302E-04
DAV:   6    -0.129312149652E+03   -0.71441E-07   -0.16206E-08   190   0.103E-03
  57 F= -.12931215E+03 E0= -.12931215E+03  d E =-.124839E-03
damped:  g(F)=  0.000E+00 g(S)=  0.000E+00 dE (1.order)= 0.000E+00
 bond charge predicted
       N       E                     dE             d eps       ncg     rms          rms(c)
DAV:   1    -0.129312305444E+03   -0.15586E-03   -0.16207E-03   328   0.204E-01    0.771E-03
DAV:   2    -0.129312308011E+03   -0.25664E-05   -0.33767E-05   200   0.266E-02    0.488E-03
DAV:   3    -0.129312308215E+03   -0.20420E-06   -0.29844E-06   164   0.860E-03    0.279E-03
DAV:   4    -0.129312308468E+03   -0.25337E-06   -0.82587E-07   173   0.469E-03    0.600E-04
DAV:   5    -0.129312308556E+03   -0.87650E-07   -0.22709E-07   173   0.232E-03    0.335E-04
DAV:   6    -0.129312308628E+03   -0.71904E-07   -0.37742E-08   191   0.110E-03
  58 F= -.12931231E+03 E0= -.12931231E+03  d E =-.158976E-03
damped:  g(F)=  0.000E+00 g(S)=  0.000E+00 dE (1.order)= 0.000E+00
 bond charge predicted
       N       E                     dE             d eps       ncg     rms          rms(c)
DAV:   1    -0.129312508894E+03   -0.20034E-03   -0.24435E-03   371   0.251E-01    0.936E-03
DAV:   2    -0.129312512749E+03   -0.38558E-05   -0.49818E-05   261   0.318E-02    0.591E-03
DAV:   3    -0.129312512967E+03   -0.21719E-06   -0.28803E-06   173   0.801E-03    0.341E-03
DAV:   4    -0.129312513405E+03   -0.43887E-06   -0.11578E-06   230   0.539E-03    0.610E-04
DAV:   5    -0.129312513498E+03   -0.92379E-07   -0.34176E-07   200   0.262E-03    0.411E-04
DAV:   6    -0.129312513553E+03   -0.55568E-07   -0.75076E-08   164   0.116E-03
  59 F= -.12931251E+03 E0= -.12931251E+03  d E =-.204925E-03
damped:  g(F)=  0.000E+00 g(S)=  0.000E+00 dE (1.order)= 0.000E+00
 reached required accuracy - stopping structural energy minimisation
