unknown system                          
           1
    30.000000    0.000000    0.000000
     0.000000   30.000000    0.000000
     0.000000    0.000000   30.000000
   H    C    N    O 
  12   6   2   2
Direct configuration=     1
   0.37447703  0.53569032  0.49751249
   0.38014359  0.48753678  0.46291717
   0.38050387  0.48164021  0.52194191
   0.44415195  0.44393106  0.49648321
   0.51264172  0.42878710  0.52268844
   0.56835411  0.44840741  0.45989443
   0.52466521  0.47975262  0.43458780
   0.51941899  0.42077563  0.44136894
   0.50793035  0.54602202  0.51042472
   0.60264164  0.54585280  0.54307081
   0.58541891  0.57626296  0.49504122
   0.56888479  0.59524449  0.54881689
   0.39068350  0.50326004  0.49425145
   0.44061096  0.50999164  0.49463986
   0.51164925  0.45989989  0.50310044
   0.53203706  0.45156137  0.45671054
   0.54454733  0.49128560  0.52760193
   0.57540748  0.56540955  0.52870265
   0.46371543  0.47130175  0.50058989
   0.53738362  0.53570786  0.52566357
   0.45703204  0.54787170  0.49092525
   0.57876940  0.47364001  0.54273117
Direct configuration=     2
   0.37441912  0.53575068  0.49748828
   0.38008931  0.48753560  0.46286274
   0.38042731  0.48161462  0.52196886
   0.44414785  0.44386427  0.49663802
   0.51267751  0.42886777  0.52262910
   0.56835921  0.44836318  0.45990352
   0.52466251  0.47977398  0.43454593
   0.51933639  0.42077887  0.44138247
   0.50806394  0.54608001  0.51043255
   0.60277245  0.54593856  0.54315675
   0.58542869  0.57630995  0.49502341
   0.56881908  0.59522434  0.54889504
   0.39065425  0.50324139  0.49423557
   0.44067070  0.50994506  0.49463169
   0.51163675  0.45998018  0.50322677
   0.53202922  0.45154381  0.45668888
   0.54455990  0.49123421  0.52751253
   0.57542006  0.56542681  0.52867490
   0.46375393  0.47124456  0.50055433
   0.53743835  0.53564462  0.52558689
   0.45696009  0.54787744  0.49088694
   0.57874182  0.47359261  0.54273950
Direct configuration=     3
   0.37435542  0.53580402  0.49744902
   0.38001252  0.48753817  0.46279478
   0.38031789  0.48158900  0.52198992
   0.44415010  0.44376892  0.49687164
   0.51273329  0.42895295  0.52257184
   0.56835782  0.44829590  0.45991156
   0.52466277  0.47979107  0.43449632
   0.51921043  0.42078091  0.44140365
   0.50823611  0.54616688  0.51042884
   0.60292855  0.54608886  0.54326171
   0.58544525  0.57638374  0.49499972
   0.56871942  0.59517983  0.54899654
   0.39060653  0.50322403  0.49422021
   0.44069773  0.50988255  0.49461489
   0.51162869  0.46006709  0.50329937
   0.53201625  0.45154776  0.45668429
   0.54459114  0.49118366  0.52742134
   0.57547005  0.56543124  0.52867488
   0.46379275  0.47118803  0.50051597
   0.53755752  0.53557697  0.52548168
   0.45687400  0.54787488  0.49083185
   0.57870448  0.47351558  0.54274448
Direct configuration=     4
   0.37430292  0.53582609  0.49739516
   0.37992065  0.48754938  0.46273073
   0.38018336  0.48157395  0.52198953
   0.44416843  0.44365866  0.49717739
   0.51280766  0.42902190  0.52253398
   0.56834217  0.44820802  0.45991454
   0.52466975  0.47979517  0.43444925
   0.51905008  0.42079243  0.44143749
   0.50842871  0.54627436  0.51040648
   0.60309091  0.54630133  0.54337209
   0.58546959  0.57648154  0.49498799
   0.56859044  0.59510204  0.54910552
   0.39053729  0.50320715  0.49420599
   0.44066098  0.50982440  0.49458744
   0.51163288  0.46012991  0.50326013
   0.53199536  0.45157479  0.45669444
   0.54464084  0.49115315  0.52735476
   0.57556772  0.56543091  0.52871098
   0.46380570  0.47114851  0.50048453
   0.53774403  0.53553017  0.52535469
   0.45678887  0.54784402  0.49076507
   0.57867072  0.47340365  0.54274614
Direct configuration=     5
   0.37426777  0.53580978  0.49732924
   0.37981950  0.48757229  0.46268462
   0.38002866  0.48157468  0.52195940
   0.44420802  0.44354699  0.49754918
   0.51289752  0.42907351  0.52251461
   0.56830602  0.44810205  0.45990992
   0.52468658  0.47978547  0.43440823
   0.51886782  0.42083061  0.44148959
   0.50864010  0.54638972  0.51036565
   0.60326569  0.54655750  0.54348761
   0.58550526  0.57660024  0.49501376
   0.56843825  0.59499095  0.54921285
   0.39044285  0.50318371  0.49418665
   0.44055839  0.50977869  0.49455133
   0.51165053  0.46015438  0.50312066
   0.53196357  0.45160332  0.45669191
   0.54470497  0.49114269  0.52731668
   0.57570385  0.56545395  0.52876316
   0.46377333  0.47112974  0.50046353
   0.53797445  0.53551974  0.52520797
   0.45671525  0.54777387  0.49068953
   0.57865104  0.47325701  0.54274802
Direct configuration=     6
   0.37424345  0.53576567  0.49725479
   0.37970959  0.48760463  0.46265891
   0.37985303  0.48158875  0.52190044
   0.44426240  0.44343926  0.49798434
   0.51299796  0.42912111  0.52249802
   0.56824476  0.44797821  0.45989499
   0.52471513  0.47976895  0.43436787
   0.51867114  0.42090330  0.44155785
   0.50887739  0.54650038  0.51030788
   0.60347355  0.54683433  0.54361494
   0.58556243  0.57674400  0.49509495
   0.56826781  0.59486165  0.54931975
   0.39032460  0.50314606  0.49415518
   0.44040902  0.50973202  0.49451134
   0.51167229  0.46014878  0.50295219
   0.53192313  0.45160774  0.45664298
   0.54478243  0.49113568  0.52728976
   0.57585701  0.56552427  0.52880294
   0.46370009  0.47112568  0.50045336
   0.53821929  0.53554000  0.52504396
   0.45666046  0.54767190  0.49060434
   0.57864285  0.47308785  0.54275308
Direct configuration=     7
   0.37420989  0.53571307  0.49716796
   0.37957096  0.48763822  0.46263632
   0.37962822  0.48160620  0.52181570
   0.44431633  0.44331953  0.49853630
   0.51311185  0.42918332  0.52246123
   0.56814939  0.44781698  0.45986172
   0.52476016  0.47975741  0.43430837
   0.51843275  0.42099947  0.44162942
   0.50916892  0.54660616  0.51022028
   0.60375304  0.54714740  0.54376950
   0.58567277  0.57695135  0.49523827
   0.56806329  0.59473637  0.54944939
   0.39017943  0.50309041  0.49410402
   0.44023678  0.50965809  0.49447034
   0.51167925  0.46015124  0.50283626
   0.53187579  0.45157975  0.45652755
   0.54488272  0.49111374  0.52723593
   0.57602243  0.56564194  0.52882725
   0.46361351  0.47111693  0.50045710
   0.53849061  0.53555892  0.52485205
   0.45661995  0.54754024  0.49049478
   0.57863235  0.47290258  0.54276385
Direct configuration=     8
   0.37414345  0.53568519  0.49707329
   0.37938875  0.48764930  0.46257924
   0.37934098  0.48160574  0.52172504
   0.44434097  0.44318062  0.49921266
   0.51322657  0.42925655  0.52239520
   0.56803301  0.44760528  0.45979982
   0.52482137  0.47976719  0.43420630
   0.51812924  0.42105712  0.44165881
   0.50950245  0.54669533  0.51008776
   0.60408563  0.54750244  0.54393309
   0.58587288  0.57726312  0.49540180
   0.56782904  0.59466461  0.54961622
   0.39003055  0.50303362  0.49404128
   0.44010823  0.50955435  0.49443303
   0.51165723  0.46022226  0.50282367
   0.53181289  0.45155760  0.45640456
   0.54499652  0.49107739  0.52711790
   0.57619787  0.56574809  0.52888791
   0.46356446  0.47106695  0.50048837
   0.53879964  0.53552706  0.52464275
   0.45657783  0.54737999  0.49035337
   0.57861157  0.47272835  0.54278110
Direct configuration=     9
   0.37403301  0.53569966  0.49697338
   0.37915763  0.48762168  0.46246360
   0.37898549  0.48157385  0.52163778
   0.44432506  0.44303246  0.50002236
   0.51333093  0.42932831  0.52230938
   0.56791324  0.44732758  0.45969803
   0.52489923  0.47980285  0.43404851
   0.51774544  0.42104310  0.44161612
   0.50987540  0.54674632  0.50989924
   0.60444005  0.54790282  0.54408748
   0.58618590  0.57770690  0.49557552
   0.56757879  0.59466059  0.54981459
   0.38989827  0.50298873  0.49397454
   0.44006209  0.50939950  0.49440578
   0.51162812  0.46035996  0.50285494
   0.53168976  0.45157138  0.45635655
   0.54512609  0.49102976  0.52695197
   0.57638567  0.56582468  0.52902733
   0.46354760  0.47095713  0.50057442
   0.53914174  0.53546373  0.52440345
   0.45653611  0.54720554  0.49017065
   0.57858650  0.47257997  0.54279700
Direct configuration=    10
   0.37390235  0.53573205  0.49686670
   0.37890299  0.48757351  0.46232987
   0.37857331  0.48152624  0.52152600
   0.44427728  0.44289555  0.50098747
   0.51342299  0.42940662  0.52221592
   0.56775239  0.44697218  0.45954672
   0.52499943  0.47983365  0.43386264
   0.51730452  0.42105137  0.44153745
   0.51029204  0.54673466  0.50963768
   0.60481154  0.54831804  0.54425060
   0.58660346  0.57827100  0.49587460
   0.56734225  0.59468008  0.55001790
   0.38976675  0.50292628  0.49388328
   0.44004379  0.50919698  0.49439360
   0.51162663  0.46042833  0.50282253
   0.53145846  0.45154816  0.45633135
   0.54527988  0.49100932  0.52681501
   0.57657037  0.56600249  0.52916014
   0.46350397  0.47081779  0.50076465
   0.53951154  0.53545205  0.52409982
   0.45653239  0.54700252  0.48993342
   0.57859520  0.47244531  0.54280451
Direct configuration=    11
   0.37381840  0.53569632  0.49674470
   0.37867540  0.48754001  0.46223902
   0.37814619  0.48149876  0.52134316
   0.44420328  0.44277167  0.50210150
   0.51351856  0.42945844  0.52214922
   0.56742854  0.44654907  0.45934760
   0.52511454  0.47978994  0.43372639
   0.51682188  0.42116398  0.44146430
   0.51069111  0.54668130  0.50926813
   0.60512528  0.54874379  0.54442297
   0.58709199  0.57893251  0.49633690
   0.56713803  0.59470201  0.55022863
   0.38958679  0.50284327  0.49377209
   0.43994087  0.50906076  0.49437683
   0.51163079  0.46037711  0.50271734
   0.53123892  0.45144692  0.45615201
   0.54547614  0.49105122  0.52674124
   0.57679380  0.56629861  0.52925671
   0.46343070  0.47068838  0.50108894
   0.53995761  0.53552129  0.52373496
   0.45658515  0.54668089  0.48964148
   0.57866141  0.47232495  0.54280672
Direct configuration=    12
   0.37378712  0.53558687  0.49660195
   0.37850308  0.48751718  0.46215622
   0.37773215  0.48148056  0.52110284
   0.44411184  0.44269016  0.50337254
   0.51364964  0.42939688  0.52215171
   0.56701322  0.44602818  0.45909911
   0.52521061  0.47969951  0.43362096
   0.51621926  0.42125925  0.44131026
   0.51109523  0.54660007  0.50878421
   0.60530309  0.54918957  0.54460830
   0.58767138  0.57974998  0.49679721
   0.56697332  0.59477398  0.55050119
   0.38940724  0.50279050  0.49368266
   0.43970471  0.50868885  0.49438919
   0.51164550  0.46040648  0.50260999
   0.53101615  0.45136046  0.45592775
   0.54572312  0.49106740  0.52662378
   0.57707173  0.56655958  0.52947164
   0.46327834  0.47060932  0.50154346
   0.54041339  0.53565398  0.52324560
   0.45676596  0.54643560  0.48923549
   0.57878168  0.47227291  0.54282342
Direct configuration=    13
   0.37374368  0.53557749  0.49645711
   0.37838533  0.48749970  0.46203976
   0.37731491  0.48141800  0.52089644
   0.44403027  0.44262179  0.50477385
   0.51381387  0.42940529  0.52209989
   0.56670720  0.44540254  0.45882663
   0.52525400  0.47970976  0.43343489
   0.51549056  0.42130980  0.44106159
   0.51145617  0.54656501  0.50817202
   0.60553319  0.54950807  0.54493836
   0.58828951  0.58064491  0.49730708
   0.56685243  0.59487159  0.55086640
   0.38929698  0.50263912  0.49357603
   0.43987883  0.50911860  0.49431019
   0.51164738  0.46038934  0.50269521
   0.53057962  0.45122107  0.45584314
   0.54596105  0.49126888  0.52635977
   0.57716478  0.56694353  0.52954862
   0.46317038  0.47038150  0.50209175
   0.54095279  0.53556502  0.52269134
   0.45661905  0.54546532  0.48879940
   0.57893872  0.47228616  0.54286838
Direct configuration=    14
   0.37373725  0.53557313  0.49645499
   0.37840497  0.48749769  0.46202146
   0.37732901  0.48140690  0.52091085
   0.44400874  0.44261443  0.50479465
   0.51383500  0.42940820  0.52211359
   0.56667794  0.44538616  0.45882124
   0.52524027  0.47970359  0.43344291
   0.51546008  0.42130568  0.44105927
   0.51152867  0.54654789  0.50818405
   0.60549191  0.54951607  0.54493230
   0.58828362  0.58065429  0.49729712
   0.56684665  0.59486882  0.55087983
   0.38932154  0.50269169  0.49358025
   0.43959126  0.50836348  0.49442072
   0.51162128  0.46039569  0.50270508
   0.53060141  0.45121665  0.45585462
   0.54602912  0.49111963  0.52637970
   0.57720588  0.56690584  0.52956853
   0.46320501  0.47049284  0.50209914
   0.54086126  0.53570839  0.52261184
   0.45690507  0.54609051  0.48868293
   0.57889497  0.47234461  0.54284267
Direct configuration=    15
   0.37373932  0.53557479  0.49645464
   0.37840895  0.48749804  0.46201932
   0.37733007  0.48140535  0.52091200
   0.44401290  0.44261756  0.50480019
   0.51383697  0.42940891  0.52211639
   0.56667356  0.44538145  0.45882122
   0.52523721  0.47970173  0.43344571
   0.51545366  0.42130561  0.44105954
   0.51152362  0.54655157  0.50817594
   0.60548655  0.54951421  0.54493323
   0.58828306  0.58065649  0.49729652
   0.56684720  0.59486691  0.55088195
   0.38932012  0.50268904  0.49358213
   0.43962513  0.50842884  0.49441115
   0.51162277  0.46039717  0.50270725
   0.53059841  0.45121498  0.45585538
   0.54602062  0.49113304  0.52637212
   0.57720613  0.56690483  0.52956794
   0.46320463  0.47047898  0.50210578
   0.54086833  0.53570184  0.52260813
   0.45687825  0.54603620  0.48868518
   0.57890349  0.47234455  0.54284600
Direct configuration=    16
   0.37374319  0.53557791  0.49645394
   0.37841721  0.48749881  0.46201508
   0.37733247  0.48140220  0.52091446
   0.44402011  0.44262297  0.50481150
   0.51384134  0.42941041  0.52212222
   0.56666480  0.44537178  0.45882113
   0.52523101  0.47969793  0.43345128
   0.51544053  0.42130542  0.44106019
   0.51151537  0.54655856  0.50816033
   0.60547587  0.54951035  0.54493507
   0.58828184  0.58066090  0.49729540
   0.56684827  0.59486287  0.55088611
   0.38931824  0.50268465  0.49358575
   0.43968409  0.50853995  0.49439484
   0.51162524  0.46039964  0.50271171
   0.53059257  0.45121141  0.45585701
   0.54600665  0.49115628  0.52635845
   0.57720672  0.56690302  0.52956667
   0.46320494  0.47045575  0.50211875
   0.54088026  0.53569132  0.52259927
   0.45683238  0.54594357  0.48868722
   0.57891798  0.47234620  0.54285129
Direct configuration=    17
   0.37374863  0.53558251  0.49645278
   0.37843176  0.48750036  0.46200827
   0.37733735  0.48139697  0.52091887
   0.44402858  0.44262944  0.50483074
   0.51384979  0.42941336  0.52213232
   0.56665034  0.44535525  0.45882073
   0.52522051  0.47969160  0.43346032
   0.51541811  0.42130512  0.44106160
   0.51150749  0.54656890  0.50813653
   0.60545862  0.54950343  0.54493823
   0.58827971  0.58066822  0.49729372
   0.56684993  0.59485575  0.55089285
   0.38931858  0.50268046  0.49359098
   0.43975219  0.50865734  0.49437774
   0.51162776  0.46040213  0.50271922
   0.53058315  0.45120491  0.45586031
   0.54599335  0.49118220  0.52634081
   0.57720778  0.56690077  0.52956421
   0.46320850  0.47043223  0.50213891
   0.54089299  0.53568238  0.52258038
   0.45678233  0.54584348  0.48868231
   0.57893382  0.47235479  0.54285570
Direct configuration=    18
   0.37374880  0.53558267  0.49645272
   0.37843290  0.48750053  0.46200790
   0.37733788  0.48139663  0.52091920
   0.44402842  0.44262936  0.50483214
   0.51385061  0.42941363  0.52213306
   0.56664942  0.44535406  0.45882063
   0.52521976  0.47969122  0.43346087
   0.51541648  0.42130513  0.44106175
   0.51150819  0.54656932  0.50813538
   0.60545761  0.54950282  0.54493852
   0.58827958  0.58066870  0.49729370
   0.56684999  0.59485518  0.55089330
   0.38931936  0.50268083  0.49359113
   0.43975001  0.50865022  0.49437880
   0.51162763  0.46040194  0.50271973
   0.53058255  0.45120438  0.45586064
   0.54599449  0.49118124  0.52634067
   0.57720781  0.56690081  0.52956395
   0.46320938  0.47043384  0.50213997
   0.54089234  0.53568359  0.52257829
   0.45678488  0.54584889  0.48868009
   0.57893319  0.47235657  0.54285511
Direct configuration=    19
   0.37374914  0.53558301  0.49645259
   0.37843520  0.48750087  0.46200717
   0.37733893  0.48139595  0.52091986
   0.44402815  0.44262925  0.50483494
   0.51385224  0.42941418  0.52213455
   0.56664758  0.44535167  0.45882044
   0.52521827  0.47969046  0.43346197
   0.51541323  0.42130515  0.44106204
   0.51150953  0.54657016  0.50813306
   0.60545558  0.54950160  0.54493908
   0.58827931  0.58066967  0.49729364
   0.56685010  0.59485404  0.55089420
   0.38932090  0.50268154  0.49359144
   0.43974588  0.50863655  0.49438084
   0.51162741  0.46040156  0.50272074
   0.53058132  0.45120330  0.45586131
   0.54599669  0.49117942  0.52634034
   0.57720785  0.56690088  0.52956342
   0.46321111  0.47043696  0.50214209
   0.54089111  0.53568597  0.52257412
   0.45678978  0.54585923  0.48867571
   0.57893199  0.47236011  0.54285396
Direct configuration=    20
   0.37374970  0.53558353  0.49645240
   0.37843867  0.48750137  0.46200607
   0.37734051  0.48139494  0.52092083
   0.44402783  0.44262915  0.50483919
   0.51385469  0.42941499  0.52213680
   0.56664480  0.44534804  0.45882016
   0.52521601  0.47968932  0.43346364
   0.51540831  0.42130519  0.44106249
   0.51151143  0.54657147  0.50812946
   0.60545253  0.54949974  0.54493994
   0.58827893  0.58067115  0.49729356
   0.56685028  0.59485232  0.55089558
   0.38932319  0.50268252  0.49359193
   0.43974028  0.50861745  0.49438369
   0.51162712  0.46040102  0.50272226
   0.53057942  0.45120169  0.45586231
   0.54599977  0.49117700  0.52633973
   0.57720786  0.56690100  0.52956260
   0.46321363  0.47044133  0.50214536
   0.54088940  0.53568935  0.52256790
   0.45679659  0.54587358  0.48866927
   0.57893040  0.47236532  0.54285233
Direct configuration=    21
   0.37375053  0.53558423  0.49645214
   0.37844338  0.48750207  0.46200460
   0.37734263  0.48139357  0.52092212
   0.44402758  0.44262918  0.50484499
   0.51385798  0.42941608  0.52213988
   0.56664103  0.44534308  0.45881977
   0.52521293  0.47968776  0.43346593
   0.51540160  0.42130523  0.44106309
   0.51151375  0.54657332  0.50812442
   0.60544838  0.54949718  0.54494112
   0.58827844  0.58067318  0.49729347
   0.56685051  0.59484999  0.55089746
   0.38932617  0.50268367  0.49359262
   0.43973392  0.50859466  0.49438709
   0.51162687  0.46040033  0.50272431
   0.53057676  0.45119949  0.45586366
   0.54600346  0.49117439  0.52633863
   0.57720781  0.56690118  0.52956146
   0.46321690  0.47044657  0.50214992
   0.54088742  0.53569353  0.52255961
   0.45680468  0.54589056  0.48866086
   0.57892866  0.47237213  0.54285033
Direct configuration=    22
   0.37375175  0.53558511  0.49645180
   0.37844948  0.48750299  0.46200277
   0.37734535  0.48139183  0.52092369
   0.44402758  0.44262947  0.50485253
   0.51386218  0.42941743  0.52214388
   0.56663615  0.44533665  0.45881927
   0.52520895  0.47968576  0.43346892
   0.51539290  0.42130529  0.44106387
   0.51151628  0.54657585  0.50811764
   0.60544304  0.54949383  0.54494266
   0.58827787  0.58067585  0.49729338
   0.56685080  0.59484698  0.55089991
   0.38932982  0.50268484  0.49359356
   0.43972777  0.50857057  0.49439068
   0.51162676  0.46039954  0.50272693
   0.53057318  0.45119666  0.45586535
   0.54600738  0.49117216  0.52633678
   0.57720762  0.56690141  0.52955996
   0.46322083  0.47045211  0.50215599
   0.54088543  0.53569822  0.52254919
   0.45681319  0.54590823  0.48865056
   0.57892716  0.47238047  0.54284811
Direct configuration=    23
   0.37375345  0.53558618  0.49645140
   0.37845703  0.48750416  0.46200058
   0.37734867  0.48138974  0.52092551
   0.44402803  0.44263021  0.50486193
   0.51386730  0.42941904  0.52214887
   0.56663013  0.44532865  0.45881865
   0.52520402  0.47968332  0.43347265
   0.51538209  0.42130536  0.44106482
   0.51151876  0.54657915  0.50810888
   0.60543646  0.54948962  0.54494459
   0.58827724  0.58067920  0.49729331
   0.56685114  0.59484327  0.55090299
   0.38933403  0.50268583  0.49359477
   0.43972312  0.50854837  0.49439400
   0.51162694  0.46039869  0.50273011
   0.53056856  0.45119316  0.45586739
   0.54601103  0.49117104  0.52633387
   0.57720721  0.56690173  0.52955804
   0.46322528  0.47045724  0.50216375
   0.54088376  0.53570300  0.52253672
   0.45682096  0.54592405  0.48863864
   0.57892634  0.47239010  0.54284590
Direct configuration=    24
   0.37375594  0.53558751  0.49645088
   0.37846681  0.48750570  0.46199788
   0.37735292  0.48138710  0.52092769
   0.44402920  0.44263163  0.50487422
   0.51387383  0.42942104  0.52215537
   0.56662234  0.44531822  0.45881783
   0.52519761  0.47968018  0.43347752
   0.51536801  0.42130547  0.44106604
   0.51152114  0.54658366  0.50809702
   0.60542798  0.54948408  0.54494713
   0.58827656  0.58068363  0.49729329
   0.56685154  0.59483848  0.55090704
   0.38933906  0.50268651  0.49359641
   0.43972088  0.50852943  0.49439684
   0.51162760  0.46039774  0.50273418
   0.53056231  0.45118865  0.45586997
   0.54601422  0.49117171  0.52632931
   0.57720644  0.56690215  0.52955551
   0.46323051  0.47046164  0.50217417
   0.54088262  0.53570789  0.52252110
   0.45682751  0.54593676  0.48862423
   0.57892662  0.47240173  0.54284370
Direct configuration=    25
   0.37375939  0.53558906  0.49645024
   0.37847898  0.48750767  0.46199469
   0.37735816  0.48138393  0.52093017
   0.44403134  0.44263394  0.50488965
   0.51388185  0.42942341  0.52216352
   0.56661267  0.44530520  0.45881677
   0.52518964  0.47967635  0.43348363
   0.51535041  0.42130562  0.44106753
   0.51152312  0.54658955  0.50808167
   0.60541750  0.54947707  0.54495032
   0.58827588  0.58068926  0.49729336
   0.56685196  0.59483255  0.55091215
   0.38934483  0.50268664  0.49359853
   0.43972243  0.50851721  0.49439870
   0.51162891  0.46039675  0.50273913
   0.53055423  0.45118308  0.45587307
   0.54601646  0.49117496  0.52632276
   0.57720522  0.56690271  0.52955231
   0.46323634  0.47046451  0.50218752
   0.54088238  0.53571245  0.52250231
   0.45683162  0.54594358  0.48860748
   0.57892849  0.47241520  0.54284171
Direct configuration=    26
   0.37376401  0.53559076  0.49644949
   0.37849382  0.48751013  0.46199105
   0.37736450  0.48138020  0.52093288
   0.44403470  0.44263732  0.50490864
   0.51389150  0.42942617  0.52217353
   0.56660089  0.44528925  0.45881541
   0.52517991  0.47967180  0.43349111
   0.51532885  0.42130581  0.44106933
   0.51152446  0.54659699  0.50806228
   0.60540482  0.54946841  0.54495423
   0.58827530  0.58069626  0.49729357
   0.56685235  0.59482537  0.55091846
   0.38935131  0.50268601  0.49360119
   0.43972898  0.50851473  0.49439912
   0.51163109  0.46039573  0.50274504
   0.53054404  0.45117634  0.45587671
   0.54601738  0.49118148  0.52631389
   0.57720341  0.56690340  0.52954838
   0.46324264  0.47046524  0.50220421
   0.54088334  0.53571642  0.52248015
   0.45683229  0.54594208  0.48858834
   0.57893237  0.47243052  0.54284011
Direct configuration=    27
   0.37377013  0.53559248  0.49644861
   0.37851181  0.48751318  0.46198698
   0.37737216  0.48137586  0.52093575
   0.44403951  0.44264193  0.50493193
   0.51390313  0.42942935  0.52218577
   0.56658665  0.44526984  0.45881364
   0.52516813  0.47966645  0.43350019
   0.51530253  0.42130606  0.44107149
   0.51152503  0.54660626  0.50803803
   0.60538959  0.54945776  0.54495897
   0.58827494  0.58070497  0.49729402
   0.56685261  0.59481675  0.55092623
   0.38935859  0.50268444  0.49360447
   0.43974141  0.50852401  0.49439780
   0.51163436  0.46039465  0.50275204
   0.53053136  0.45116822  0.45588095
   0.54601686  0.49119180  0.52630233
   0.57720091  0.56690424  0.52954364
   0.46324934  0.47046351  0.50222488
   0.54088565  0.53571972  0.52245406
   0.45682896  0.54593053  0.48856633
   0.57893855  0.47244807  0.54283893
Direct configuration=    28
   0.37377820  0.53559401  0.49644760
   0.37853380  0.48751700  0.46198246
   0.37738154  0.48137081  0.52093871
   0.44404592  0.44264788  0.50496080
   0.51391732  0.42943306  0.52220085
   0.56656925  0.44524603  0.45881124
   0.52515376  0.47966020  0.43351124
   0.51527013  0.42130637  0.44107410
   0.51152490  0.54661771  0.50800765
   0.60537121  0.54944457  0.54496467
   0.58827504  0.58071589  0.49729487
   0.56685252  0.59480633  0.55093586
   0.38936700  0.50268190  0.49360849
   0.43975971  0.50854470  0.49439479
   0.51163894  0.46039341  0.50276036
   0.53051553  0.45115830  0.45588592
   0.54601530  0.49120598  0.52628782
   0.57719758  0.56690524  0.52953797
   0.46325654  0.47045970  0.50225047
   0.54088917  0.53572281  0.52242285
   0.45682204  0.54590893  0.48854019
   0.57894705  0.47246879  0.54283797
Direct configuration=    29
   0.37378889  0.53559491  0.49644645
   0.37856112  0.48752182  0.46197750
   0.37739336  0.48136486  0.52094166
   0.44405393  0.44265504  0.50499732
   0.51393512  0.42943749  0.52221977
   0.56654762  0.44521635  0.45880780
   0.52513597  0.47965290  0.43352484
   0.51522947  0.42130675  0.44107735
   0.51152467  0.54663175  0.50796934
   0.60534872  0.54942796  0.54497153
   0.58827598  0.58072988  0.49729644
   0.56685174  0.59479354  0.55094800
   0.38937733  0.50267871  0.49361342
   0.43978185  0.50857111  0.49439090
   0.51164501  0.46039171  0.50277042
   0.53049553  0.45114597  0.45589184
   0.54601416  0.49122308  0.52627032
   0.57719319  0.56690649  0.52953118
   0.46326464  0.47045567  0.50228236
   0.54089305  0.53572707  0.52238440
   0.45681419  0.54588145  0.48850729
   0.57895721  0.47249461  0.54283660
Direct configuration=    30
   0.37380263  0.53559466  0.49644522
   0.37859482  0.48752779  0.46197216
   0.37740824  0.48135783  0.52094449
   0.44406297  0.44266285  0.50504332
   0.51395751  0.42944281  0.52224336
   0.56652083  0.44517958  0.45880284
   0.52511412  0.47964453  0.43354135
   0.51517873  0.42130716  0.44108140
   0.51152553  0.54664840  0.50792185
   0.60532140  0.54940728  0.54497959
   0.58827829  0.58074769  0.49729914
   0.56684976  0.59477794  0.55096318
   0.38939061  0.50267549  0.49361912
   0.43980253  0.50858978  0.49438810
   0.51165229  0.46038902  0.50278265
   0.53047088  0.45113081  0.45589879
   0.54601587  0.49124051  0.52625052
   0.57718776  0.56690805  0.52952325
   0.46327426  0.47045513  0.50232137
   0.54089561  0.53573485  0.52233665
   0.45681104  0.54585859  0.48846433
   0.57896747  0.47252776  0.54283379
Direct configuration=    31
   0.37381960  0.53559283  0.49644402
   0.37863530  0.48753489  0.46196650
   0.37742654  0.48134963  0.52094706
   0.44407245  0.44267079  0.50509994
   0.51398501  0.42944913  0.52227200
   0.56648836  0.44513515  0.45879589
   0.52508796  0.47963524  0.43356087
   0.51511689  0.42130759  0.44108635
   0.51152848  0.54666741  0.50786464
   0.60528898  0.54938223  0.54498865
   0.58828251  0.58076982  0.49730343
   0.56684606  0.59475940  0.55098168
   0.38940772  0.50267280  0.49362538
   0.43981645  0.50858792  0.49438832
   0.51166033  0.46038509  0.50279722
   0.53044153  0.45111261  0.45590678
   0.54602209  0.49125612  0.52622909
   0.57718146  0.56691001  0.52951445
   0.46328589  0.47046124  0.50236775
   0.54089539  0.53574787  0.52227857
   0.45681791  0.54585038  0.48840878
   0.57897671  0.47256958  0.54282886
Direct configuration=    32
   0.37384040  0.53558900  0.49644304
   0.37868345  0.48754311  0.46196056
   0.37744879  0.48134003  0.52094910
   0.44408247  0.44267900  0.50516957
   0.51401849  0.42945660  0.52230660
   0.56644909  0.44508165  0.45878617
   0.52505687  0.47962513  0.43358384
   0.51504172  0.42130801  0.44109240
   0.51153378  0.54668890  0.50779555
   0.60525074  0.54935205  0.54499857
   0.58828967  0.58079732  0.49731017
   0.56683982  0.59473750  0.55100412
   0.38942959  0.50267083  0.49363218
   0.43982205  0.50856138  0.49439208
   0.51166900  0.46037987  0.50281458
   0.53040677  0.45109108  0.45591562
   0.54603277  0.49127030  0.52620546
   0.57717414  0.56691264  0.52950467
   0.46329986  0.47047503  0.50242288
   0.54089189  0.53576664  0.52220887
   0.45683717  0.54585973  0.48833792
   0.57898565  0.47262103  0.54282198
Direct configuration=    33
   0.37386661  0.53558270  0.49644262
   0.37874111  0.48755244  0.46195428
   0.37747590  0.48132850  0.52095002
   0.44409457  0.44268899  0.50525714
   0.51405934  0.42946546  0.52234905
   0.56640075  0.44501603  0.45877223
   0.52501949  0.47961418  0.43361129
   0.51494866  0.42130841  0.44110003
   0.51154008  0.54671367  0.50770933
   0.60520506  0.54931514  0.54500908
   0.58830170  0.58083240  0.49732104
   0.56682957  0.59471133  0.55103176
   0.38945734  0.50266844  0.49363969
   0.43982606  0.50852493  0.49439674
   0.51167881  0.46037371  0.50283565
   0.53036434  0.45106554  0.45592512
   0.54604485  0.49128835  0.52617670
   0.57716521  0.56691648  0.52949399
   0.46331603  0.47049297  0.50249045
   0.54088663  0.53578923  0.52212581
   0.45686477  0.54587420  0.48824901
   0.57899796  0.47268265  0.54281450
Direct configuration=    34
   0.37389921  0.53557425  0.49644319
   0.37880842  0.48756247  0.46194749
   0.37750786  0.48131465  0.52094917
   0.44411103  0.44270316  0.50536579
   0.51410760  0.42947588  0.52240013
   0.56634217  0.44493668  0.45875289
   0.52497535  0.47960258  0.43364362
   0.51483525  0.42130892  0.44110958
   0.51154439  0.54674223  0.50760189
   0.60515144  0.54927080  0.54501959
   0.58832040  0.58087658  0.49733760
   0.56681406  0.59468064  0.55106514
   0.38949044  0.50266337  0.49364803
   0.43984419  0.50851446  0.49439627
   0.51169059  0.46036775  0.50286089
   0.53031253  0.45103584  0.45593468
   0.54605333  0.49131852  0.52613953
   0.57715398  0.56692202  0.52948276
   0.46333330  0.47050594  0.50257300
   0.54088345  0.53581097  0.52203084
   0.45688812  0.54586435  0.48814427
   0.57901848  0.47275238  0.54280871
Direct configuration=    35
   0.37393864  0.53556408  0.49644529
   0.37888546  0.48757257  0.46193971
   0.37754491  0.48129787  0.52094613
   0.44413254  0.44272266  0.50549934
   0.51416353  0.42948867  0.52246076
   0.56627190  0.44484162  0.45872670
   0.52492401  0.47959036  0.43368107
   0.51469861  0.42130972  0.44112187
   0.51154613  0.54677412  0.50746994
   0.60508947  0.54921863  0.54502904