  22  22   0   0
  0.1227273E+04  0.3000000E-08  0.3000000E-08  0.3000000E-08  0.0000000E+00
  1.000000000000000E-004
  CAR 
 unknown system                          
      2.20160202    -28.28296473  301     -4.60582402      1.00000000
    -28.283  0.0000E+00  0.0000E+00
    -28.181  0.0000E+00  0.0000E+00
    -28.080  0.0000E+00  0.0000E+00
    -27.978  0.0000E+00  0.0000E+00
    -27.877  0.0000E+00  0.0000E+00
    -27.775  0.0000E+00  0.0000E+00
    -27.673  0.0000E+00  0.0000E+00
    -27.572  0.0000E+00  0.0000E+00
    -27.470  0.0000E+00  0.0000E+00
    -27.368  0.5426E-15  0.5514E-16
    -27.267  0.1136E-12  0.1160E-13
    -27.165  0.1439E-10  0.1474E-11
    -27.064  0.1099E-08  0.1131E-09
    -26.962  0.5060E-07  0.5255E-08
    -26.860  0.1408E-05  0.1484E-06
    -26.759  0.2372E-04  0.2559E-05
    -26.657  0.2422E-03  0.2717E-04
    -26.556  0.1503E-02  0.1799E-03
    -26.454  0.5670E-02  0.7560E-03
    -26.352  0.1303E-01  0.2080E-02
    -26.251  0.1826E-01  0.3936E-02
    -26.149  0.1560E-01  0.5521E-02
    -26.047  0.8134E-02  0.6348E-02
    -25.946  0.2629E-02  0.6615E-02
    -25.844  0.9250E-03  0.6709E-02
    -25.743  0.2356E-02  0.6948E-02
    -25.641  0.7542E-02  0.7715E-02
    -25.539  0.1507E-01  0.9246E-02
    -25.438  0.1836E-01  0.1111E-01
    -25.336  0.1365E-01  0.1250E-01
    -25.235  0.6187E-02  0.1313E-01
    -25.133  0.1708E-02  0.1330E-01
    -25.031  0.2869E-03  0.1333E-01
    -24.930  0.2927E-04  0.1333E-01
    -24.828  0.1811E-05  0.1333E-01
    -24.726  0.6782E-07  0.1333E-01
    -24.625  0.1535E-08  0.1333E-01
    -24.523  0.2120E-10  0.1333E-01
    -24.422  0.2822E-10  0.1333E-01
    -24.320  0.1988E-08  0.1333E-01
    -24.218  0.8504E-07  0.1333E-01
    -24.117  0.2198E-05  0.1333E-01
    -24.015  0.3441E-04  0.1334E-01
    -23.914  0.3266E-03  0.1337E-01
    -23.812  0.1883E-02  0.1356E-01
    -23.710  0.6607E-02  0.1423E-01
    -23.609  0.1412E-01  0.1567E-01
    -23.507  0.1840E-01  0.1754E-01
    -23.405  0.1463E-01  0.1902E-01
    -23.304  0.7088E-02  0.1974E-01
    -23.202  0.2093E-02  0.1996E-01
    -23.101  0.3807E-03  0.2000E-01
    -22.999  0.1065E-03  0.2001E-01
    -22.897  0.5472E-03  0.2006E-01
    -22.796  0.2753E-02  0.2034E-01
    -22.694  0.8473E-02  0.2120E-01
    -22.593  0.1589E-01  0.2282E-01
    -22.491  0.1817E-01  0.2466E-01
    -22.389  0.1267E-01  0.2595E-01
    -22.288  0.5389E-02  0.2650E-01
    -22.186  0.1396E-02  0.2664E-01
    -22.084  0.2199E-03  0.2666E-01
    -21.983  0.2103E-04  0.2667E-01
    -21.881  0.1220E-05  0.2667E-01
    -21.780  0.4282E-07  0.2667E-01
    -21.678  0.9083E-09  0.2667E-01
    -21.576  0.1162E-10  0.2667E-01
    -21.475  0.8958E-13  0.2667E-01
    -21.373  0.4152E-15  0.2667E-01
    -21.272  0.0000E+00  0.2667E-01
    -21.170  0.0000E+00  0.2667E-01
    -21.068  0.0000E+00  0.2667E-01
    -20.967  0.0000E+00  0.2667E-01
    -20.865  0.0000E+00  0.2667E-01
    -20.763  0.2877E-15  0.2667E-01
    -20.662  0.6391E-13  0.2667E-01
    -20.560  0.8573E-11  0.2667E-01
    -20.459  0.6927E-09  0.2667E-01
    -20.357  0.3376E-07  0.2667E-01
    -20.255  0.9941E-06  0.2667E-01
    -20.154  0.1771E-04  0.2667E-01
    -20.052  0.1913E-03  0.2669E-01
    -19.951  0.1255E-02  0.2682E-01
    -19.849  0.5007E-02  0.2732E-01
    -19.747  0.1217E-01  0.2856E-01
    -19.646  0.1802E-01  0.3039E-01
    -19.544  0.1628E-01  0.3205E-01
    -19.442  0.8966E-02  0.3296E-01
    -19.341  0.3010E-02  0.3326E-01
    -19.239  0.6150E-03  0.3332E-01
    -19.138  0.7638E-04  0.3333E-01
    -19.036  0.5757E-05  0.3333E-01
    -18.934  0.2983E-06  0.3333E-01
    -18.833  0.1045E-05  0.3333E-01
    -18.731  0.1837E-04  0.3334E-01
    -18.630  0.1970E-03  0.3336E-01
    -18.528  0.1284E-02  0.3349E-01
    -18.426  0.5086E-02  0.3400E-01
    -18.325  0.1227E-01  0.3525E-01
    -18.223  0.1805E-01  0.3708E-01
    -18.121  0.1620E-01  0.3873E-01
    -18.020  0.8862E-02  0.3963E-01
    -17.918  0.2959E-02  0.3993E-01
    -17.817  0.6689E-03  0.4000E-01
    -17.715  0.6440E-03  0.4006E-01
    -17.613  0.2853E-02  0.4035E-01
    -17.512  0.8657E-02  0.4123E-01
    -17.410  0.1604E-01  0.4286E-01
    -17.309  0.1812E-01  0.4471E-01
    -17.207  0.1248E-01  0.4597E-01
    -17.105  0.5244E-02  0.4651E-01
    -17.004  0.1342E-02  0.4664E-01
    -16.902  0.2087E-03  0.4666E-01
    -16.800  0.1973E-04  0.4667E-01
    -16.699  0.1142E-05  0.4667E-01
    -16.597  0.4410E-06  0.4667E-01
    -16.496  0.8253E-05  0.4667E-01
    -16.394  0.1027E-03  0.4668E-01
    -16.292  0.7754E-03  0.4676E-01
    -16.191  0.3560E-02  0.4712E-01
    -16.089  0.9952E-02  0.4813E-01
    -15.988  0.1695E-01  0.4985E-01
    -15.886  0.1761E-01  0.5164E-01
    -15.784  0.1116E-01  0.5278E-01
    -15.683  0.4310E-02  0.5321E-01
    -15.581  0.1014E-02  0.5332E-01
    -15.479  0.1606E-03  0.5333E-01
    -15.378  0.1854E-03  0.5335E-01
    -15.276  0.1161E-02  0.5347E-01
    -15.175  0.4741E-02  0.5395E-01
    -15.073  0.1179E-01  0.5515E-01
    -14.971  0.1789E-01  0.5697E-01
    -14.870  0.1654E-01  0.5865E-01
    -14.768  0.9328E-02  0.5960E-01
    -14.667  0.3206E-02  0.5992E-01
    -14.565  0.6707E-03  0.5999E-01
    -14.463  0.8677E-04  0.6000E-01
    -14.362  0.3119E-04  0.6000E-01
    -14.260  0.2499E-03  0.6003E-01
    -14.158  0.1537E-02  0.6018E-01
    -14.057  0.5758E-02  0.6077E-01
    -13.955  0.1314E-01  0.6210E-01
    -13.854  0.1828E-01  0.6396E-01
    -13.752  0.1551E-01  0.6554E-01
    -13.650  0.8026E-02  0.6635E-01
    -13.549  0.2536E-02  0.6661E-01
    -13.447  0.5629E-03  0.6667E-01
    -13.346  0.6781E-03  0.6674E-01
    -13.244  0.3037E-02  0.6705E-01
    -13.142  0.9010E-02  0.6796E-01
    -13.041  0.1631E-01  0.6962E-01
    -12.939  0.1805E-01  0.7145E-01
    -12.837  0.1255E-01  0.7273E-01
    -12.736  0.7296E-02  0.7347E-01
    -12.634  0.8833E-02  0.7437E-01
    -12.533  0.1531E-01  0.7592E-01
    -12.431  0.1838E-01  0.7779E-01
    -12.329  0.1360E-01  0.7917E-01
    -12.228  0.6223E-02  0.7981E-01
    -12.126  0.2352E-02  0.8004E-01
    -12.025  0.3462E-02  0.8040E-01
    -11.923  0.9312E-02  0.8134E-01
    -11.821  0.1655E-01  0.8302E-01
    -11.720  0.1826E-01  0.8488E-01
    -11.618  0.1386E-01  0.8629E-01
    -11.516  0.1173E-01  0.8748E-01
    -11.415  0.1605E-01  0.8911E-01
    -11.313  0.2093E-01  0.9124E-01
    -11.212  0.2196E-01  0.9347E-01
    -11.110  0.2198E-01  0.9570E-01
    -11.008  0.2065E-01  0.9780E-01
    -10.907  0.1586E-01  0.9941E-01
    -10.805  0.1298E-01  0.1007E+00
    -10.704  0.1643E-01  0.1024E+00
    -10.602  0.2101E-01  0.1045E+00
    -10.500  0.2222E-01  0.1068E+00
    -10.399  0.2338E-01  0.1092E+00
    -10.297  0.2631E-01  0.1118E+00
    -10.195  0.3040E-01  0.1149E+00
    -10.094  0.3739E-01  0.1187E+00
     -9.992  0.4469E-01  0.1233E+00
     -9.891  0.4413E-01  0.1278E+00
     -9.789  0.3221E-01  0.1310E+00
     -9.687  0.1646E-01  0.1327E+00
     -9.586  0.7377E-02  0.1335E+00
     -9.484  0.9178E-02  0.1344E+00
     -9.383  0.2027E-01  0.1364E+00
     -9.281  0.3326E-01  0.1398E+00
     -9.179  0.3879E-01  0.1438E+00
     -9.078  0.3648E-01  0.1475E+00
     -8.976  0.3289E-01  0.1508E+00
     -8.874  0.3047E-01  0.1539E+00
     -8.773  0.2698E-01  0.1567E+00
     -8.671  0.2051E-01  0.1587E+00
     -8.570  0.1473E-01  0.1602E+00
     -8.468  0.1526E-01  0.1618E+00
     -8.366  0.1864E-01  0.1637E+00
     -8.265  0.1648E-01  0.1654E+00
     -8.163  0.9128E-02  0.1663E+00
     -8.062  0.3093E-02  0.1666E+00
     -7.960  0.6385E-03  0.1667E+00
     -7.858  0.8012E-04  0.1667E+00
     -7.757  0.6100E-05  0.1667E+00
     -7.655  0.2814E-06  0.1667E+00
     -7.553  0.7850E-08  0.1667E+00
     -7.452  0.1393E-09  0.1667E+00
     -7.350  0.5895E-09  0.1667E+00
     -7.249  0.2925E-07  0.1667E+00
     -7.147  0.8785E-06  0.1667E+00
     -7.045  0.1597E-04  0.1667E+00
     -6.944  0.1762E-03  0.1667E+00
     -6.842  0.1184E-02  0.1668E+00
     -6.741  0.4884E-02  0.1673E+00
     -6.639  0.1260E-01  0.1686E+00
     -6.537  0.2137E-01  0.1708E+00
     -6.436  0.2627E-01  0.1734E+00
     -6.334  0.2611E-01  0.1761E+00
     -6.232  0.2090E-01  0.1782E+00
     -6.131  0.1229E-01  0.1794E+00
     -6.029  0.6257E-02  0.1801E+00
     -5.928  0.7478E-02  0.1808E+00
     -5.826  0.1507E-01  0.1824E+00
     -5.724  0.2326E-01  0.1847E+00
     -5.623  0.2700E-01  0.1875E+00
     -5.521  0.2544E-01  0.1901E+00
     -5.420  0.1868E-01  0.1920E+00
     -5.318  0.9560E-02  0.1929E+00
     -5.216  0.3150E-02  0.1933E+00
     -5.115  0.6446E-03  0.1933E+00
     -5.013  0.8071E-04  0.1933E+00
     -4.911  0.6146E-05  0.1933E+00
     -4.810  0.2837E-06  0.1933E+00
     -4.708  0.7924E-08  0.1933E+00
     -4.607  0.1336E-09  0.1933E+00
     -4.505  0.1358E-11  0.1933E+00
     -4.403  0.8316E-14  0.1933E+00
     -4.302  0.2914E-16  0.1933E+00
     -4.200  0.0000E+00  0.1933E+00
     -4.099  0.0000E+00  0.1933E+00
     -3.997  0.0000E+00  0.1933E+00
     -3.895  0.0000E+00  0.1933E+00
     -3.794  0.0000E+00  0.1933E+00
     -3.692  0.0000E+00  0.1933E+00
     -3.590  0.0000E+00  0.1933E+00
     -3.489  0.0000E+00  0.1933E+00
     -3.387  0.0000E+00  0.1933E+00
     -3.286  0.0000E+00  0.1933E+00
     -3.184  0.0000E+00  0.1933E+00
     -3.082  0.0000E+00  0.1933E+00
     -2.981  0.0000E+00  0.1933E+00
     -2.879  0.0000E+00  0.1933E+00
     -2.778  0.0000E+00  0.1933E+00
     -2.676  0.0000E+00  0.1933E+00
     -2.574  0.0000E+00  0.1933E+00
     -2.473  0.0000E+00  0.1933E+00
     -2.371  0.0000E+00  0.1933E+00
     -2.269  0.2549E-16  0.1933E+00
     -2.168  0.7346E-14  0.1933E+00
     -2.066  0.1248E-11  0.1933E+00
     -1.965  0.1282E-09  0.1933E+00
     -1.863  0.7986E-08  0.1933E+00
     -1.761  0.3021E-06  0.1933E+00
     -1.660  0.6962E-05  0.1933E+00
     -1.558  0.9800E-04  0.1933E+00
     -1.457  0.8449E-03  0.1934E+00
     -1.355  0.4473E-02  0.1939E+00
     -1.253  0.1458E-01  0.1954E+00
     -1.152  0.2929E-01  0.1983E+00
     -1.050  0.3633E-01  0.2020E+00
     -0.948  0.2785E-01  0.2049E+00
     -0.847  0.1337E-01  0.2062E+00
     -0.745  0.5215E-02  0.2068E+00
     -0.644  0.6097E-02  0.2074E+00
     -0.542  0.1334E-01  0.2087E+00
     -0.440  0.2183E-01  0.2109E+00
     -0.339  0.2926E-01  0.2139E+00
     -0.237  0.4144E-01  0.2181E+00
     -0.136  0.6223E-01  0.2245E+00
     -0.034  0.8761E-01  0.2334E+00
      0.068  0.1111E+00  0.2446E+00
      0.169  0.1179E+00  0.2566E+00
      0.271  0.9288E-01  0.2661E+00
      0.373  0.4975E-01  0.2711E+00
      0.474  0.1732E-01  0.2729E+00
      0.576  0.3833E-02  0.2733E+00
      0.677  0.5326E-03  0.2733E+00
      0.779  0.4608E-04  0.2733E+00
      0.881  0.2465E-05  0.2733E+00
      0.982  0.8109E-07  0.2733E+00
      1.084  0.1633E-08  0.2733E+00
      1.185  0.2003E-10  0.2733E+00
      1.287  0.1493E-12  0.2733E+00
      1.389  0.6738E-15  0.2733E+00
      1.490  0.0000E+00  0.2733E+00
      1.592  0.0000E+00  0.2733E+00
      1.694  0.0000E+00  0.2733E+00
      1.795  0.0000E+00  0.2733E+00
      1.897  0.0000E+00  0.2733E+00
      1.998  0.0000E+00  0.2733E+00
      2.100  0.0000E+00  0.2733E+00
      2.202  0.0000E+00  0.2733E+00
