   22   22  300    1
  0.1227273E+04  0.3000000E-08  0.3000000E-08  0.3000000E-08  0.0000000E+00
  1.000000000000000E-004
  CAR 
 unknown system                          
     58      4     41
 
  0.2500000E+00  0.2500000E+00  0.2500000E+00  0.2500000E+00
    1      -26.282964   1.000000
    2      -25.498686   1.000000
    3      -23.554248   1.000000
    4      -22.564934   1.000000
    5      -19.666569   1.000000
    6      -18.245360   1.000000
    7      -17.385064   1.000000
    8      -15.979675   1.000000
    9      -14.987436   1.000000
   10      -13.887360   1.000000
   11      -13.020370   1.000000
   12      -12.492691   1.000000
   13      -11.804603   1.000000
   14      -11.364989   1.000000
   15      -11.070689   1.000000
   16      -10.651991   1.000000
   17      -10.358226   1.000000
   18      -10.117327   1.000000
   19       -9.975993   1.000000
   20       -9.887576   1.000000
   21       -9.325119   1.000000
   22       -9.216916   1.000000
   23       -9.004628   1.000000
   24       -8.789257   1.000000
   25       -8.385198   1.000000
   26       -6.554198   1.000000
   27       -6.323924   1.000000
   28       -5.765828   1.000000
   29       -5.539722   1.000000
   30       -1.129253   0.000000
   31       -1.083307   0.000000
   32       -0.467024   0.000000
   33       -0.211543   0.000000
   34       -0.110557   0.000000
   35       -0.066456   0.000000
   36        0.039334   0.000000
   37        0.102648   0.000000
   38        0.133365   0.000000
   39        0.142088   0.000000
   40        0.170550   0.000000
   41        0.201602   0.000000
 
 -0.2500000E+00  0.2500000E+00  0.2500000E+00  0.2500000E+00
    1      -26.282963   1.000000
    2      -25.498684   1.000000
    3      -23.554247   1.000000
    4      -22.564934   1.000000
    5      -19.666570   1.000000
    6      -18.245356   1.000000
    7      -17.385060   1.000000
    8      -15.979678   1.000000
    9      -14.987440   1.000000
   10      -13.887363   1.000000
   11      -13.020364   1.000000
   12      -12.492685   1.000000
   13      -11.804606   1.000000
   14      -11.364992   1.000000
   15      -11.070688   1.000000
   16      -10.651988   1.000000
   17      -10.358223   1.000000
   18      -10.117328   1.000000
   19       -9.975996   1.000000
   20       -9.887570   1.000000
   21       -9.325110   1.000000
   22       -9.216906   1.000000
   23       -9.004632   1.000000
   24       -8.789259   1.000000
   25       -8.385197   1.000000
   26       -6.554205   1.000000
   27       -6.323933   1.000000
   28       -5.765830   1.000000
   29       -5.539716   1.000000
   30       -1.129265   0.000000
   31       -1.083308   0.000000
   32       -0.467023   0.000000
   33       -0.211526   0.000000
   34       -0.110362   0.000000
   35       -0.067035   0.000000
   36        0.040573   0.000000
   37        0.101766   0.000000
   38        0.125929   0.000000
   39        0.144278   0.000000
   40        0.186637   0.000000
   41        0.200264   0.000000
 
  0.2500000E+00 -0.2500000E+00  0.2500000E+00  0.2500000E+00
    1      -26.282964   1.000000
    2      -25.498684   1.000000
    3      -23.554251   1.000000
    4      -22.564935   1.000000
    5      -19.666567   1.000000
    6      -18.245362   1.000000
    7      -17.385066   1.000000
    8      -15.979675   1.000000
    9      -14.987436   1.000000
   10      -13.887372   1.000000
   11      -13.020372   1.000000
   12      -12.492693   1.000000
   13      -11.804606   1.000000
   14      -11.364987   1.000000
   15      -11.070684   1.000000
   16      -10.651985   1.000000
   17      -10.358227   1.000000
   18      -10.117328   1.000000
   19       -9.975995   1.000000
   20       -9.887574   1.000000
   21       -9.325118   1.000000
   22       -9.216920   1.000000
   23       -9.004626   1.000000
   24       -8.789252   1.000000
   25       -8.385191   1.000000
   26       -6.554204   1.000000
   27       -6.323926   1.000000
   28       -5.765836   1.000000
   29       -5.539716   1.000000
   30       -1.129275   0.000000
   31       -1.083309   0.000000
   32       -0.467016   0.000000
   33       -0.211539   0.000000
   34       -0.110368   0.000000
   35       -0.066615   0.000000
   36        0.036567   0.000000
   37        0.112083   0.000000
   38        0.122891   0.000000
   39        0.143694   0.000000
   40        0.189999   0.000000
   41        0.196451   0.000000
 
 -0.2500000E+00 -0.2500000E+00  0.2500000E+00  0.2500000E+00
    1      -26.282965   1.000000
    2      -25.498684   1.000000
    3      -23.554249   1.000000
    4      -22.564937   1.000000
    5      -19.666570   1.000000
    6      -18.245359   1.000000
    7      -17.385061   1.000000
    8      -15.979680   1.000000
    9      -14.987439   1.000000
   10      -13.887366   1.000000
   11      -13.020371   1.000000
   12      -12.492692   1.000000
   13      -11.804604   1.000000
   14      -11.364989   1.000000
   15      -11.070693   1.000000
   16      -10.651986   1.000000
   17      -10.358226   1.000000
   18      -10.117333   1.000000
   19       -9.976000   1.000000
   20       -9.887570   1.000000
   21       -9.325111   1.000000
   22       -9.216914   1.000000
   23       -9.004638   1.000000
   24       -8.789253   1.000000
   25       -8.385198   1.000000
   26       -6.554194   1.000000
   27       -6.323927   1.000000
   28       -5.765839   1.000000
   29       -5.539729   1.000000
   30       -1.129265   0.000000
   31       -1.083305   0.000000
   32       -0.467009   0.000000
   33       -0.211560   0.000000
   34       -0.110268   0.000000
   35       -0.066692   0.000000
   36        0.036237   0.000000
   37        0.118547   0.000000
   38        0.128378   0.000000
   39        0.133395   0.000000
   40        0.175673   0.000000
   41        0.195897   0.000000
