 vasp.5.4.1 24Jun15 (build Jan 13 2020 12:58:22) complex                        
  
 executed on           IFC91_ompi date 2020.02.03  09:56:59
 running on   15 total cores
 each image running on    1 cores
 distrk:  each k-point on    1 cores,    1 groups
 distr:  one band on NCORES_PER_BAND=   1 cores,    1 groups


--------------------------------------------------------------------------------------------------------


 INCAR:
 POTCAR:    PAW_PBE H 15Jun2001                   
 POTCAR:    PAW_PBE C 08Apr2002                   
 POTCAR:    PAW_PBE N 08Apr2002                   
 POTCAR:    PAW_PBE O 08Apr2002                   
 POTCAR:    PAW_PBE H 15Jun2001                   
   VRHFIN =H: ultrasoft test                                                    
   LEXCH  = PE                                                                  
   EATOM  =    12.4884 eV,    0.9179 Ry                                         
                                                                                
   TITEL  = PAW_PBE H 15Jun2001                                                 
   LULTRA =        F    use ultrasoft PP ?                                      
   IUNSCR =        0    unscreen: 0-lin 1-nonlin 2-no                           
   RPACOR =    0.000    partial core radius                                     
   POMASS =    1.000; ZVAL   =    1.000    mass and valenz                      
   RCORE  =    1.100    outmost cutoff radius                                   
   RWIGS  =    0.700; RWIGS  =    0.370    wigner-seitz radius (au A)           
   ENMAX  =  250.000; ENMIN  =  200.000 eV                                      
   RCLOC  =    0.701    cutoff for local pot                                    
   LCOR   =        T    correct aug charges                                     
   LPAW   =        T    paw PP                                                  
   EAUG   =  400.000                                                            
   RMAX   =    1.123    core radius for proj-oper                               
   RAUG   =    1.200    factor for augmentation sphere                          
   RDEP   =    1.112    radius for radial grids                                 
   RDEPT  =    0.926    core radius for aug-charge                              
                                                                                
   Atomic configuration                                                         
    2 entries                                                                   
     n  l   j            E        occ.                                          
     1  0  0.50        -6.4927   1.0000                                         
     2  1  0.50        -3.4015   0.0000                                         
   Description                                                                  
     l       E           TYP  RCUT    TYP  RCUT                                 
     0     -6.4927494     23  1.100                                             
     0      6.8029130     23  1.100                                             
     1     -4.0817478     23  1.100                                             
  local pseudopotential read in
  atomic valenz-charges read in
  non local Contribution for L=           0  read in
    real space projection operators read in
  non local Contribution for L=           0  read in
    real space projection operators read in
  non local Contribution for L=           1  read in
    real space projection operators read in
    PAW grid and wavefunctions read in
 
   number of l-projection  operators is LMAX  =           3
   number of lm-projection operators is LMMAX =           5
 
 POTCAR:    PAW_PBE C 08Apr2002                   
   VRHFIN =C: s2p2                                                              
   LEXCH  = PE                                                                  
   EATOM  =   147.1560 eV,   10.8157 Ry                                         
                                                                                
   TITEL  = PAW_PBE C 08Apr2002                                                 
   LULTRA =        F    use ultrasoft PP ?                                      
   IUNSCR =        1    unscreen: 0-lin 1-nonlin 2-no                           
   RPACOR =    1.200    partial core radius                                     
   POMASS =   12.011; ZVAL   =    4.000    mass and valenz                      
   RCORE  =    1.500    outmost cutoff radius                                   
   RWIGS  =    1.630; RWIGS  =    0.863    wigner-seitz radius (au A)           
   ENMAX  =  400.000; ENMIN  =  300.000 eV                                      
   ICORE  =        2    local potential                                         
   LCOR   =        T    correct aug charges                                     
   LPAW   =        T    paw PP                                                  
   EAUG   =  644.873                                                            
   DEXC   =    0.000                                                            
   RMAX   =    1.529    core radius for proj-oper                               
   RAUG   =    1.300    factor for augmentation sphere                          
   RDEP   =    1.501    radius for radial grids                                 
   RDEPT  =    1.300    core radius for aug-charge                              
                                                                                
   Atomic configuration                                                         
    4 entries                                                                   
     n  l   j            E        occ.                                          
     1  0  0.50      -273.3789   2.0000                                         
     2  0  0.50       -13.7508   2.0000                                         
     2  1  0.50        -5.2854   2.0000                                         
     3  2  1.50        -5.4423   0.0000                                         
   Description                                                                  
     l       E           TYP  RCUT    TYP  RCUT                                 
     0    -13.7508458     23  1.200                                             
     0     -8.2022199     23  1.200                                             
     1     -5.2854383     23  1.500                                             
     1     34.0145650     23  1.500                                             
     2     -5.4423304      7  1.500                                             
  local pseudopotential read in
  partial core-charges read in
  partial kinetic energy density read in
  atomic valenz-charges read in
  non local Contribution for L=           0  read in
    real space projection operators read in
  non local Contribution for L=           0  read in
    real space projection operators read in
  non local Contribution for L=           1  read in
    real space projection operators read in
  non local Contribution for L=           1  read in
    real space projection operators read in
    PAW grid and wavefunctions read in
 
   number of l-projection  operators is LMAX  =           4
   number of lm-projection operators is LMMAX =           8
 
 POTCAR:    PAW_PBE N 08Apr2002                   
   VRHFIN =N: s2p3                                                              
   LEXCH  = PE                                                                  
   EATOM  =   264.5486 eV,   19.4438 Ry                                         
                                                                                
   TITEL  = PAW_PBE N 08Apr2002                                                 
   LULTRA =        F    use ultrasoft PP ?                                      
   IUNSCR =        1    unscreen: 0-lin 1-nonlin 2-no                           
   RPACOR =    1.200    partial core radius                                     
   POMASS =   14.001; ZVAL   =    5.000    mass and valenz                      
   RCORE  =    1.500    outmost cutoff radius                                   
   RWIGS  =    1.400; RWIGS  =    0.741    wigner-seitz radius (au A)           
   ENMAX  =  400.000; ENMIN  =  300.000 eV                                      
   ICORE  =        2    local potential                                         
   LCOR   =        T    correct aug charges                                     
   LPAW   =        T    paw PP                                                  
   EAUG   =  627.112                                                            
   DEXC   =    0.000                                                            
   RMAX   =    1.529    core radius for proj-oper                               
   RAUG   =    1.300    factor for augmentation sphere                          
   RDEP   =    1.514    radius for radial grids                                 
   RDEPT  =    1.338    core radius for aug-charge                              
                                                                                
   Atomic configuration                                                         
    4 entries                                                                   
     n  l   j            E        occ.                                          
     1  0  0.50      -384.7179   2.0000                                         
     2  0  0.50       -18.5828   2.0000                                         
     2  1  0.50        -7.0898   3.0000                                         
     3  2  1.50        -6.8029   0.0000                                         
   Description                                                                  
     l       E           TYP  RCUT    TYP  RCUT                                 
     0    -18.5828119     23  1.200                                             
     0    -13.5018863     23  1.200                                             
     1     -7.0897853     23  1.500                                             
     1      9.5240782     23  1.500                                             
     2     -6.8029130      7  1.500                                             
  local pseudopotential read in
  partial core-charges read in
  partial kinetic energy density read in
  atomic valenz-charges read in
  non local Contribution for L=           0  read in
    real space projection operators read in
  non local Contribution for L=           0  read in
    real space projection operators read in
  non local Contribution for L=           1  read in
    real space projection operators read in
  non local Contribution for L=           1  read in
    real space projection operators read in
    PAW grid and wavefunctions read in
 
   number of l-projection  operators is LMAX  =           4
   number of lm-projection operators is LMMAX =           8
 
 POTCAR:    PAW_PBE O 08Apr2002                   
   VRHFIN =O: s2p4                                                              
   LEXCH  = PE                                                                  
   EATOM  =   432.3788 eV,   31.7789 Ry                                         
                                                                                
   TITEL  = PAW_PBE O 08Apr2002                                                 
   LULTRA =        F    use ultrasoft PP ?                                      
   IUNSCR =        1    unscreen: 0-lin 1-nonlin 2-no                           
   RPACOR =    1.200    partial core radius                                     
   POMASS =   16.000; ZVAL   =    6.000    mass and valenz                      
   RCORE  =    1.520    outmost cutoff radius                                   
   RWIGS  =    1.550; RWIGS  =    0.820    wigner-seitz radius (au A)           
   ENMAX  =  400.000; ENMIN  =  300.000 eV                                      
   ICORE  =        2    local potential                                         
   LCOR   =        T    correct aug charges                                     
   LPAW   =        T    paw PP                                                  
   EAUG   =  605.392                                                            
   DEXC   =    0.000                                                            
   RMAX   =    1.553    core radius for proj-oper                               
   RAUG   =    1.300    factor for augmentation sphere                          
   RDEP   =    1.550    radius for radial grids                                 
   RDEPT  =    1.329    core radius for aug-charge                              
                                                                                
   Atomic configuration                                                         
    4 entries                                                                   
     n  l   j            E        occ.                                          
     1  0  0.50      -514.6923   2.0000                                         
     2  0  0.50       -23.9615   2.0000                                         
     2  1  0.50        -9.0305   4.0000                                         
     3  2  1.50        -9.5241   0.0000                                         
   Description                                                                  
     l       E           TYP  RCUT    TYP  RCUT                                 
     0    -23.9615318     23  1.200                                             
     0     -9.5240782     23  1.200                                             
     1     -9.0304911     23  1.520                                             
     1      8.1634956     23  1.520                                             
     2     -9.5240782      7  1.500                                             
  local pseudopotential read in
  partial core-charges read in
  partial kinetic energy density read in
  kinetic energy density of atom read in
  atomic valenz-charges read in
  non local Contribution for L=           0  read in
    real space projection operators read in
  non local Contribution for L=           0  read in
    real space projection operators read in
  non local Contribution for L=           1  read in
    real space projection operators read in
  non local Contribution for L=           1  read in
    real space projection operators read in
    PAW grid and wavefunctions read in
 
   number of l-projection  operators is LMAX  =           4
   number of lm-projection operators is LMMAX =           8
 
 Optimization of the real space projectors (new method)

 maximal supplied QI-value         = 34.20
 optimisation between [QCUT,QGAM] = [  9.92, 20.18] = [ 27.55,114.04] Ry 
 Optimized for a Real-space Cutoff    1.26 Angstroem

   l    n(q)    QCUT    max X(q) W(low)/X(q) W(high)/X(q)  e(spline) 
   0      8     9.919    19.460    0.50E-03    0.23E-03    0.29E-06
   0      8     9.919    12.209    0.48E-03    0.23E-03    0.28E-06
   1      7     9.919     4.655    0.17E-03    0.75E-03    0.30E-06
 Optimization of the real space projectors (new method)

 maximal supplied QI-value         = 25.13
 optimisation between [QCUT,QGAM] = [ 10.05, 20.36] = [ 28.30,116.06] Ry 
 Optimized for a Real-space Cutoff    1.30 Angstroem

   l    n(q)    QCUT    max X(q) W(low)/X(q) W(high)/X(q)  e(spline) 
   0      8    10.053   115.676    0.49E-03    0.72E-03    0.18E-06
   0      8    10.053    87.132    0.49E-03    0.71E-03    0.18E-06
   1      7    10.053     4.429    0.32E-03    0.31E-03    0.18E-06
   1      7    10.053     2.733    0.23E-03    0.19E-03    0.20E-06
 Optimization of the real space projectors (new method)

 maximal supplied QI-value         = 25.13
 optimisation between [QCUT,QGAM] = [ 10.05, 20.36] = [ 28.30,116.06] Ry 
 Optimized for a Real-space Cutoff    1.65 Angstroem

   l    n(q)    QCUT    max X(q) W(low)/X(q) W(high)/X(q)  e(spline) 
   0     10    10.053    79.467    0.76E-04    0.72E-04    0.56E-06
   0     10    10.053    66.151    0.76E-04    0.72E-04    0.55E-06
   1     10    10.053     8.350    0.25E-03    0.92E-03    0.41E-05
   1     10    10.053     5.531    0.27E-03    0.10E-02    0.45E-05
 Optimization of the real space projectors (new method)

 maximal supplied QI-value         = 24.76
 optimisation between [QCUT,QGAM] = [ 10.15, 20.30] = [ 28.85,115.39] Ry 
 Optimized for a Real-space Cutoff    1.38 Angstroem

   l    n(q)    QCUT    max X(q) W(low)/X(q) W(high)/X(q)  e(spline) 
   0      8    10.150    20.381    0.22E-03    0.32E-03    0.29E-06
   0      8    10.150    15.268    0.23E-03    0.35E-03    0.30E-06
   1      8    10.150     5.964    0.46E-03    0.53E-03    0.21E-06
   1      8    10.150     5.382    0.38E-03    0.45E-03    0.19E-06
  PAW_PBE H 15Jun2001                   :
 energy of atom  1       EATOM=  -12.4884
 kinetic energy error for atom=    0.0098 (will be added to EATOM!!)
  PAW_PBE C 08Apr2002                   :
 energy of atom  2       EATOM= -147.1560
 kinetic energy error for atom=    0.0288 (will be added to EATOM!!)
  PAW_PBE N 08Apr2002                   :
 energy of atom  3       EATOM= -264.5486
 kinetic energy error for atom=    0.0736 (will be added to EATOM!!)
  PAW_PBE O 08Apr2002                   :
 energy of atom  4       EATOM= -432.3788
 kinetic energy error for atom=    0.1156 (will be added to EATOM!!)
 
 
 POSCAR: H12 C6 N2 O2                            
  positions in direct lattice
  velocities in cartesian coordinates
 exchange correlation table for  LEXCH =        8
   RHO(1)=    0.500       N(1)  =     2000
   RHO(2)=  100.500       N(2)  =     4000

 VTST: version 3.2, (02/03/18)

 CHAIN: initializing optimizer
 
 OPT: Using FIRE optimizer
 OPT: FIRE, Init
 OPT: FIRE, MAXMOVE       0.20000
 OPT: FIRE, TIMESTEP      0.10000
 OPT: FIRE, FTIMEMAX      1.00000
 OPT: FIRE, FTIMEINC      1.10000
 OPT: FIRE, FTIMEDEC      0.50000
 OPT: FIRE, FALPHADEC     0.99000
 OPT: FIRE, FALPHA        0.10000
 OPT: FIRE, FNMIN         5
 
 CHAIN: Read ICHAIN            0
 CHAIN: Running the NEB
 NEB:          SPRING     -5.000000
 NEB:          LCLIMB      T
 NEB:     LTANGENTOLD      F
 NEB:           LDNEB      F
 NEB:        LDNEBORG      F
 NEB:        LNEBCELL      F
 NEB:          EFIRST      0.000000
 NEB:           ELAST      0.000000
 
 POSCAR: H12 C6 N2 O2                            
  positions in direct lattice
  No initial velocities read in
 
 POSCAR: H12 C6 N2 O2                            
  positions in direct lattice
  No initial velocities read in
 


--------------------------------------------------------------------------------------------------------


 ion  position               nearest neighbor table
   1  0.375  0.536  0.497-  13 1.09
   2  0.380  0.479  0.479-  13 1.10
   3  0.379  0.492  0.537-  13 1.10
   4  0.449  0.448  0.522-  19 1.02
   5  0.523  0.449  0.544-  15 1.11
   6  0.556  0.416  0.478-  16 1.10
   7  0.515  0.439  0.442-  16 1.10
   8  0.499  0.399  0.484-  16 1.10
   9  0.511  0.553  0.508-  20 1.03
  10  0.605  0.576  0.524-  18 1.10
  11  0.592  0.572  0.466-  18 1.10
  12  0.561  0.609  0.501-  18 1.09
  13  0.391  0.504  0.505-   1 1.09   3 1.10   2 1.10  14 1.53
  14  0.441  0.512  0.504-  21 1.24  19 1.36  13 1.53
  15  0.515  0.464  0.511-   5 1.11  19 1.49  16 1.53  17 1.55
  16  0.521  0.427  0.476-   6 1.10   7 1.10   8 1.10  15 1.53
  17  0.552  0.499  0.505-  22 1.24  20 1.35  15 1.55
  18  0.577  0.577  0.500-  12 1.09  10 1.10  11 1.10  20 1.45
  19  0.467  0.476  0.514-   4 1.02  14 1.36  15 1.49
  20  0.544  0.543  0.510-   9 1.03  17 1.35  18 1.45
  21  0.455  0.549  0.494-  14 1.24
  22  0.590  0.484  0.497-  17 1.24
 
  LATTYP: Found a simple cubic cell.
 ALAT       =    30.0000000000
  
  Lattice vectors:
  
 A1 = (  30.0000000000,   0.0000000000,   0.0000000000)
 A2 = (   0.0000000000,  30.0000000000,   0.0000000000)
 A3 = (   0.0000000000,   0.0000000000,  30.0000000000)


Analysis of symmetry for initial positions (statically):
=====================================================================
 Subroutine PRICEL returns:
 Original cell was already a primitive cell.
 

 Routine SETGRP: Setting up the symmetry group for a 
 simple cubic supercell.


 Subroutine GETGRP returns: Found  1 space group operations
 (whereof  1 operations were pure point group operations)
 out of a pool of 48 trial point group operations.


The static configuration has the point symmetry C_1 .


Analysis of symmetry for dynamics (positions and initial velocities):
=====================================================================
 Subroutine PRICEL returns:
 Original cell was already a primitive cell.
 

 Routine SETGRP: Setting up the symmetry group for a 
 simple cubic supercell.


 Subroutine GETGRP returns: Found  1 space group operations
 (whereof  1 operations were pure point group operations)
 out of a pool of 48 trial point group operations.


The dynamic configuration has the point symmetry C_1 .
 
 
 KPOINTS: Mo2C                                    

Automatic generation of k-mesh.
Space group operators:
 irot       det(A)        alpha          n_x          n_y          n_z        tau_x        tau_y        tau_z
    1     1.000000     0.000000     1.000000     0.000000     0.000000     0.000000     0.000000     0.000000
 
 Subroutine IBZKPT returns following result:
 ===========================================
 
 Found      4 irreducible k-points:
 
 Following reciprocal coordinates:
            Coordinates               Weight
  0.250000  0.250000  0.250000      2.000000
 -0.250000  0.250000  0.250000      2.000000
  0.250000 -0.250000  0.250000      2.000000
 -0.250000 -0.250000  0.250000      2.000000
 
 Following cartesian coordinates:
            Coordinates               Weight
  0.008333  0.008333  0.008333      2.000000
 -0.008333  0.008333  0.008333      2.000000
  0.008333 -0.008333  0.008333      2.000000
 -0.008333 -0.008333  0.008333      2.000000
 


--------------------------------------------------------------------------------------------------------




 Dimension of arrays:
   k-points           NKPTS =      4   k-points in BZ     NKDIM =      4   number of bands    NBANDS=     41
   number of dos      NEDOS =    301   number of ions     NIONS =     22
   non local maximal  LDIM  =      4   non local SUM 2l+1 LMDIM =      8
   total plane-waves  NPLWV = ******
   max r-space proj   IRMAX =   2395   max aug-charges    IRDMAX=   1821
   dimension x,y,z NGX =   150 NGY =  150 NGZ =  150
   dimension x,y,z NGXF=   300 NGYF=  300 NGZF=  300
   support grid    NGXF=   300 NGYF=  300 NGZF=  300
   ions per type =              12   6   2   2
 NGX,Y,Z   is equivalent  to a cutoff of   8.31,  8.31,  8.31 a.u.
 NGXF,Y,Z  is equivalent  to a cutoff of  16.62, 16.62, 16.62 a.u.


 I would recommend the setting:
   dimension x,y,z NGX =   147 NGY =  147 NGZ =  147
 SYSTEM =  unknown system                          
 POSCAR =  H12 C6 N2 O2                            

 Startparameter for this run:
   NWRITE =      2    write-flag & timer
   PREC   = normal    normal or accurate (medium, high low for compatibility)
   ISTART =      0    job   : 0-new  1-cont  2-samecut
   ICHARG =      2    charge: 1-file 2-atom 10-const
   ISPIN  =      1    spin polarized calculation?
   LNONCOLLINEAR =      F non collinear calculations
   LSORBIT =      F    spin-orbit coupling
   INIWAV =      1    electr: 0-lowe 1-rand  2-diag
   LASPH  =      F    aspherical Exc in radial PAW
   METAGGA=      F    non-selfconsistent MetaGGA calc.

 Electronic Relaxation 1
   ENCUT  =  400.0 eV  29.40 Ry    5.42 a.u.  48.92 48.92 48.92*2*pi/ulx,y,z
   ENINI  =  400.0     initial cutoff
   ENAUG  =  644.9 eV  augmentation charge cutoff
   NELM   =    500;   NELMIN=  6; NELMDL= -5     # of ELM steps 
   EDIFF  = 0.1E-03   stopping-criterion for ELM
   LREAL  =      T    real-space projection
   NLSPLINE    = F    spline interpolate recip. space projectors
   LCOMPAT=      F    compatible to vasp.4.4
   GGA_COMPAT  = T    GGA compatible to vasp.4.4-vasp.4.6
   LMAXPAW     = -100 max onsite density
   LMAXMIX     =    2 max onsite mixed and CHGCAR
   VOSKOWN=      0    Vosko Wilk Nusair interpolation
   ROPT   =   -0.00050  -0.00050  -0.00050  -0.00050
 Ionic relaxation
   EDIFFG = -.1E+00   stopping-criterion for IOM
   NSW    =    300    number of steps for IOM
   NBLOCK =      1;   KBLOCK =    300    inner block; outer block 
   IBRION =      3    ionic relax: 0-MD 1-quasi-New 2-CG
   NFREE  =      0    steps in history (QN), initial steepest desc. (CG)
   ISIF   =      2    stress and relaxation
   IWAVPR =     11    prediction:  0-non 1-charg 2-wave 3-comb
   ISYM   =      2    0-nonsym 1-usesym 2-fastsym
   LCORR  =      T    Harris-Foulkes like correction to forces

   POTIM  = 0.0000    time-step for ionic-motion
   TEIN   =    0.0    initial temperature
   TEBEG  =    0.0;   TEEND  =   0.0 temperature during run
   SMASS  =   2.00    Nose mass-parameter (am)
   estimated Nose-frequenzy (Omega)   =  0.24E+10 period in steps =  0.00 mass=   0.137E-25a.u.
   SCALEE = 1.0000    scale energy and forces
   NPACO  =    256;   APACO  = 16.0  distance and # of slots for P.C.
   PSTRESS=    0.0 pullay stress

  Mass of Ions in am
   POMASS =   1.00 12.01 14.00 16.00
  Ionic Valenz
   ZVAL   =   1.00  4.00  5.00  6.00
  Atomic Wigner-Seitz radii
   RWIGS  =  -1.00 -1.00 -1.00 -1.00
  virtual crystal weights 
   VCA    =   1.00  1.00  1.00  1.00
   NELECT =      58.0000    total number of electrons
   NUPDOWN=      -1.0000    fix difference up-down

 DOS related values:
   EMIN   =  10.00;   EMAX   =-10.00  energy-range for DOS
   EFERMI =   0.00
   ISMEAR =     0;   SIGMA  =   0.20  broadening in eV -4-tet -1-fermi 0-gaus

 Electronic relaxation 2 (details)
   IALGO  =     38    algorithm
   LDIAG  =      T    sub-space diagonalisation (order eigenvalues)
   LSUBROT=      F    optimize rotation matrix (better conditioning)
   TURBO    =      0    0=normal 1=particle mesh
   IRESTART =      0    0=no restart 2=restart with 2 vectors
   NREBOOT  =      0    no. of reboots
   NMIN     =      0    reboot dimension
   EREF     =   0.00    reference energy to select bands
   IMIX   =      4    mixing-type and parameters
     AMIX     =   0.40;   BMIX     =  1.00
     AMIX_MAG =   1.60;   BMIX_MAG =  1.00
     AMIN     =   0.10
     WC   =   100.;   INIMIX=   1;  MIXPRE=   1;  MAXMIX= -45

 Intra band minimization:
   WEIMIN = 0.0010     energy-eigenvalue tresh-hold
   EBREAK =  0.61E-06  absolut break condition
   DEPER  =   0.30     relativ break condition  

   TIME   =   0.40     timestep for ELM

  volume/ion in A,a.u.               =    1227.27      8282.05
  Fermi-wavevector in a.u.,A,eV,Ry     =   0.211234  0.399174  0.607087  0.044620
  Thomas-Fermi vector in A             =   0.980021
 
 Write flags
   LWAVE  =      F    write WAVECAR
   LCHARG =      F    write CHGCAR
   LVTOT  =      F    write LOCPOT, total local potential
   LVHAR  =      F    write LOCPOT, Hartree potential only
   LELF   =      F    write electronic localiz. function (ELF)
   LORBIT =      0    0 simple, 1 ext, 2 COOP (PROOUT)


 Dipole corrections
   LMONO  =      F    monopole corrections only (constant potential shift)
   LDIPOL =      F    correct potential (dipole corrections)
   IDIPOL =      0    1-x, 2-y, 3-z, 4-all directions 
   EPSILON=  1.0000000 bulk dielectric constant

 Exchange correlation treatment:
   GGA     =    PE    GGA type
   LEXCH   =     8    internal setting for exchange type
   VOSKOWN=      0    Vosko Wilk Nusair interpolation
   LHFCALC =     F    Hartree Fock is set to
   LHFONE  =     F    Hartree Fock one center treatment
   AEXX    =    0.0000 exact exchange contribution

 Linear response parameters
   LEPSILON=     F    determine dielectric tensor
   LRPA    =     F    only Hartree local field effects (RPA)
   LNABLA  =     F    use nabla operator in PAW spheres
   LVEL    =     F    velocity operator in full k-point grid
   LINTERFAST=   F  fast interpolation
   KINTER  =     0    interpolate to denser k-point grid
   CSHIFT  =0.1000    complex shift for real part using Kramers Kronig
   OMEGAMAX=  -1.0    maximum frequency
   DEG_THRESHOLD= 0.2000000E-02 threshold for treating states as degnerate
   RTIME   =    0.100 relaxation time in fs

 Orbital magnetization related:
   ORBITALMAG=     F  switch on orbital magnetization
   LCHIMAG   =     F  perturbation theory with respect to B field
   DQ        =  0.001000  dq finite difference perturbation B field



--------------------------------------------------------------------------------------------------------


 quickmin algorithm: (dynamic with friction)
 charge density and potential will be updated during run
 non-spin polarized calculation
 Variant of blocked Davidson
 Davidson routine will perform the subspace rotation
 perform sub-space diagonalisation
    after iterative eigenvector-optimisation
 modified Broyden-mixing scheme, WC =      100.0
 initial mixing is a Kerker type mixing with AMIX =  0.4000 and BMIX =      1.0000
 Hartree-type preconditioning will be used
 using additional bands           12
 real space projection scheme for non local part
 use partial core corrections
 calculate Harris-corrections to forces 
   (improved forces if not selfconsistent)
 use gradient corrections 
 use of overlap-Matrix (Vanderbilt PP)
 Gauss-broadening in eV      SIGMA  =   0.20


--------------------------------------------------------------------------------------------------------


  energy-cutoff  :      400.00
  volume of cell :    27000.00
      direct lattice vectors                 reciprocal lattice vectors
    30.000000000  0.000000000  0.000000000     0.033333333  0.000000000  0.000000000
     0.000000000 30.000000000  0.000000000     0.000000000  0.033333333  0.000000000
     0.000000000  0.000000000 30.000000000     0.000000000  0.000000000  0.033333333

  length of vectors
    30.000000000 30.000000000 30.000000000     0.033333333  0.033333333  0.033333333


 
 k-points in units of 2pi/SCALE and weight: Mo2C                                    
   0.00833333  0.00833333  0.00833333       0.250
  -0.00833333  0.00833333  0.00833333       0.250
   0.00833333 -0.00833333  0.00833333       0.250
  -0.00833333 -0.00833333  0.00833333       0.250
 
 k-points in reciprocal lattice and weights: Mo2C                                    
   0.25000000  0.25000000  0.25000000       0.250
  -0.25000000  0.25000000  0.25000000       0.250
   0.25000000 -0.25000000  0.25000000       0.250
  -0.25000000 -0.25000000  0.25000000       0.250
 
 position of ions in fractional coordinates (direct lattice) 
   0.37506058  0.53551796  0.49740085
   0.38041543  0.47923707  0.47942982
   0.37881126  0.49169813  0.53730281
   0.44939808  0.44787258  0.52199626
   0.52311565  0.44862088  0.54399070
   0.55615710  0.41553737  0.47763814
   0.51460070  0.43877610  0.44244886
   0.49922159  0.39867426  0.48358399
   0.51078183  0.55270277  0.50796049
   0.60514946  0.57590633  0.52377597
   0.59157099  0.57225785  0.46621134
   0.56111530  0.60918932  0.50137337
   0.39092567  0.50365568  0.50492052
   0.44114188  0.51168274  0.50395979
   0.51516423  0.46384087  0.51122514
   0.52145450  0.42690125  0.47639605
   0.55246814  0.49917002  0.50490641
   0.57733062  0.57653963  0.49984760
   0.46703900  0.47577248  0.51443619
   0.54379767  0.54305298  0.50996679
   0.45522905  0.54947007  0.49435958
   0.59005115  0.48392486  0.49687135
 
 position of ions in cartesian coordinates  (Angst):
  11.25181747 16.06553879 14.92202560
  11.41246302 14.37711223 14.38289470
  11.36433777 14.75094375 16.11908440
  13.48194227 13.43617731 15.65988794
  15.69346957 13.45862642 16.31972090
  16.68471308 12.46612112 14.32914427
  15.43802094 13.16328291 13.27346589
  14.97664784 11.96022776 14.50751961
  15.32345497 16.58108321 15.23881457
  18.15448389 17.27718992 15.71327912
  17.74712963 17.16773539 13.98634011
  16.83345890 18.27567958 15.04120111
  11.72777010 15.10967035 15.14761557
  13.23425651 15.35048235 15.11879381
  15.45492694 13.91522601 15.33675413
  15.64363490 12.80703738 14.29188148
  16.57404420 14.97510053 15.14719226
  17.31991858 17.29618891 14.99542795
  14.01117005 14.27317439 15.43308559
  16.31393008 16.29158931 15.29900382
  13.65687146 16.48410197 14.83078733
  17.70153461 14.51774582 14.90614052
 


--------------------------------------------------------------------------------------------------------


 k-point  1 :   0.2500 0.2500 0.2500  plane waves:  490454
 k-point  2 :  -0.2500 0.2500 0.2500  plane waves:  490454
 k-point  3 :   0.2500-0.2500 0.2500  plane waves:  490454
 k-point  4 :  -0.2500-0.2500 0.2500  plane waves:  490454

 maximum and minimum number of plane-waves per node :    490454   490454

 maximum number of plane-waves:    490454
 maximum index in each direction: 
   IXMAX=   49   IYMAX=   49   IZMAX=   48
   IXMIN=  -49   IYMIN=  -49   IZMIN=  -49

 WARNING: aliasing errors must be expected set NGX to 198 to avoid them
 WARNING: aliasing errors must be expected set NGY to 198 to avoid them
 WARNING: aliasing errors must be expected set NGZ to 196 to avoid them
 aliasing errors are usually negligible using standard VASP settings
 and one can safely disregard these warnings

 serial   3D FFT for wavefunctions
 parallel 3D FFT for charge:
    minimum data exchange during FFTs selected (reduces bandwidth)


 total amount of memory used by VASP on root node  4333713. kBytes
========================================================================

   base      :      30000. kBytes
   nonlr-proj:       2408. kBytes
   fftplans  :     924480. kBytes
   grid      :    2089440. kBytes
   one-center:         67. kBytes
   wavefun   :    1287318. kBytes
 
     INWAV:  cpu time    0.0000: real time    0.0004
 Broyden mixing: mesh for mixing (old mesh)
   NGX = 97   NGY = 97   NGZ = 97
  (NGX  =300   NGY  =300   NGZ  =300)
  gives a total of 912673 points

 initial charge density was supplied:
 charge density of overlapping atoms calculated
 number of electron      58.0000000 magnetization 
 keeping initial charge density in first step


--------------------------------------------------------------------------------------------------------


 Maximum index for non-local projection operator         2291
 Maximum index for augmentation-charges         1578 (set IRDMAX)


--------------------------------------------------------------------------------------------------------


 First call to EWALD:  gamma=   0.059
 Maximum number of real-space cells 3x 3x 3
 Maximum number of reciprocal cells 3x 3x 3

 FEWALD executed in parallel
    FEWALD:  cpu time    0.0050: real time    0.0048


----------------------------------------- Iteration    1(   1)  ---------------------------------------


    POTLOK:  cpu time   25.2542: real time   25.2333
    SETDIJ:  cpu time    0.0300: real time    0.0298
     EDDAV:  cpu time  302.1511: real time  301.9052
       DOS:  cpu time    0.0000: real time    0.0009
    --------------------------------------------
      LOOP:  cpu time  327.4372: real time  327.1741

 eigenvalue-minimisations  :   392
 total energy-change (2. order) : 0.6092226E+03  (-0.7957655E+03)
 number of electron      58.0000000 magnetization 
 augmentation part       58.0000000 magnetization 

 Free energy of the ion-electron system (eV)
  ---------------------------------------------------
  alpha Z        PSCENC =         0.51957394
  Ewald energy   TEWEN  =      6031.87356170
  -Hartree energ DENC   =     -7775.68529277
  -exchange      EXHF   =         0.00000000
  -V(xc)+E(xc)   XCENC  =       201.97818114
  PAW double counting   =      1779.70502452    -1789.20730229
  entropy T*S    EENTRO =        -0.78144432
  eigenvalues    EBANDS =      -265.16306482
  atomic energy  EATOM  =      2425.98333211
  Solvation  Ediel_sol  =         0.00000000
  ---------------------------------------------------
  free energy    TOTEN  =       609.22256921 eV

  energy without entropy =      610.00401353  energy(sigma->0) =      609.61329137


--------------------------------------------------------------------------------------------------------




----------------------------------------- Iteration    1(   2)  ---------------------------------------


     EDDAV:  cpu time  421.8189: real time  421.4752
       DOS:  cpu time    0.0000: real time    0.0008
    --------------------------------------------
      LOOP:  cpu time  421.8209: real time  421.4790

 eigenvalue-minimisations  :   580
 total energy-change (2. order) :-0.3373258E+03  (-0.3263688E+03)
 number of electron      58.0000000 magnetization 
 augmentation part       58.0000000 magnetization 

 Free energy of the ion-electron system (eV)
  ---------------------------------------------------
  alpha Z        PSCENC =         0.51957394
  Ewald energy   TEWEN  =      6031.87356170
  -Hartree energ DENC   =     -7775.68529277
  -exchange      EXHF   =         0.00000000
  -V(xc)+E(xc)   XCENC  =       201.97818114
  PAW double counting   =      1779.70502452    -1789.20730229
  entropy T*S    EENTRO =        -0.48683659
  eigenvalues    EBANDS =      -602.78342336
  atomic energy  EATOM  =      2425.98333211
  Solvation  Ediel_sol  =         0.00000000
  ---------------------------------------------------
  free energy    TOTEN  =       271.89681840 eV

  energy without entropy =      272.38365498  energy(sigma->0) =      272.14023669


--------------------------------------------------------------------------------------------------------




----------------------------------------- Iteration    1(   3)  ---------------------------------------


     EDDAV:  cpu time  375.0720: real time  374.7665
       DOS:  cpu time    0.0010: real time    0.0006
    --------------------------------------------
      LOOP:  cpu time  375.0750: real time  374.7702

 eigenvalue-minimisations  :   504
 total energy-change (2. order) :-0.3180784E+03  (-0.3108163E+03)
 number of electron      58.0000000 magnetization 
 augmentation part       58.0000000 magnetization 

 Free energy of the ion-electron system (eV)
  ---------------------------------------------------
  alpha Z        PSCENC =         0.51957394
  Ewald energy   TEWEN  =      6031.87356170
  -Hartree energ DENC   =     -7775.68529277
  -exchange      EXHF   =         0.00000000
  -V(xc)+E(xc)   XCENC  =       201.97818114
  PAW double counting   =      1779.70502452    -1789.20730229
  entropy T*S    EENTRO =        -0.09481976
  eigenvalues    EBANDS =      -921.25383330
  atomic energy  EATOM  =      2425.98333211
  Solvation  Ediel_sol  =         0.00000000
  ---------------------------------------------------
  free energy    TOTEN  =       -46.18157472 eV

  energy without entropy =      -46.08675496  energy(sigma->0) =      -46.13416484


--------------------------------------------------------------------------------------------------------




----------------------------------------- Iteration    1(   4)  ---------------------------------------


     EDDAV:  cpu time  316.1299: real time  315.8726
       DOS:  cpu time    0.0000: real time    0.0005
    --------------------------------------------
      LOOP:  cpu time  316.1309: real time  315.8764

 eigenvalue-minimisations  :   414
 total energy-change (2. order) :-0.8955759E+02  (-0.8663355E+02)
 number of electron      58.0000000 magnetization 
 augmentation part       58.0000000 magnetization 

 Free energy of the ion-electron system (eV)
  ---------------------------------------------------
  alpha Z        PSCENC =         0.51957394
  Ewald energy   TEWEN  =      6031.87356170
  -Hartree energ DENC   =     -7775.68529277
  -exchange      EXHF   =         0.00000000
  -V(xc)+E(xc)   XCENC  =       201.97818114
  PAW double counting   =      1779.70502452    -1789.20730229
  entropy T*S    EENTRO =         0.00000000
  eigenvalues    EBANDS =     -1010.90624184
  atomic energy  EATOM  =      2425.98333211
  Solvation  Ediel_sol  =         0.00000000
  ---------------------------------------------------
  free energy    TOTEN  =      -135.73916349 eV

  energy without entropy =     -135.73916349  energy(sigma->0) =     -135.73916349


--------------------------------------------------------------------------------------------------------




----------------------------------------- Iteration    1(   5)  ---------------------------------------


     EDDAV:  cpu time  319.5524: real time  319.2930
       DOS:  cpu time    0.0000: real time    0.0005
    CHARGE:  cpu time   19.6120: real time   19.5961
    MIXING:  cpu time    0.7159: real time    0.7154
    --------------------------------------------
      LOOP:  cpu time  339.8823: real time  339.6083

 eigenvalue-minimisations  :   416
 total energy-change (2. order) :-0.5755584E+01  (-0.5738717E+01)
 number of electron      58.0000047 magnetization 
 augmentation part        2.9634080 magnetization 

 Broyden mixing:
  rms(total) = 0.19507E+01    rms(broyden)= 0.19484E+01
  rms(prec ) = 0.20258E+01
  weight for this iteration     100.00

 Free energy of the ion-electron system (eV)
  ---------------------------------------------------
  alpha Z        PSCENC =         0.51957394
  Ewald energy   TEWEN  =      6031.87356170
  -Hartree energ DENC   =     -7775.68529277
  -exchange      EXHF   =         0.00000000
  -V(xc)+E(xc)   XCENC  =       201.97818114
  PAW double counting   =      1779.70502452    -1789.20730229
  entropy T*S    EENTRO =         0.00000000
  eigenvalues    EBANDS =     -1016.66182618
  atomic energy  EATOM  =      2425.98333211
  Solvation  Ediel_sol  =         0.00000000
  ---------------------------------------------------
  free energy    TOTEN  =      -141.49474784 eV

  energy without entropy =     -141.49474784  energy(sigma->0) =     -141.49474784


--------------------------------------------------------------------------------------------------------




----------------------------------------- Iteration    1(   6)  ---------------------------------------


    POTLOK:  cpu time   23.3974: real time   23.3781
    SETDIJ:  cpu time    0.0290: real time    0.0287
     EDDAV:  cpu time  287.9722: real time  287.7365
       DOS:  cpu time    0.0000: real time    0.0005
    CHARGE:  cpu time   17.0834: real time   17.0703
    MIXING:  cpu time    0.6409: real time    0.6399
    --------------------------------------------
      LOOP:  cpu time  329.1250: real time  328.8581

 eigenvalue-minimisations  :   399
 total energy-change (2. order) : 0.1006801E+02  (-0.2435404E+01)
 number of electron      58.0000031 magnetization 
 augmentation part        2.6270809 magnetization 

 Broyden mixing:
  rms(total) = 0.99213E+00    rms(broyden)= 0.99164E+00
  rms(prec ) = 0.10202E+01
  weight for this iteration     100.00

 eigenvalues of (default mixing * dielectric matrix)
  average eigenvalue GAMMA=   1.2795
  1.2795

 Free energy of the ion-electron system (eV)
  ---------------------------------------------------
  alpha Z        PSCENC =         0.51957394
  Ewald energy   TEWEN  =      6031.87356170
  -Hartree energ DENC   =     -7889.85251975
  -exchange      EXHF   =         0.00000000
  -V(xc)+E(xc)   XCENC  =       208.02850247
  PAW double counting   =      2767.69043981    -2778.54184234
  entropy T*S    EENTRO =         0.00000000
  eigenvalues    EBANDS =      -897.12778917
  atomic energy  EATOM  =      2425.98333211
  Solvation  Ediel_sol  =         0.00000000
  ---------------------------------------------------
  free energy    TOTEN  =      -131.42674123 eV

  energy without entropy =     -131.42674123  energy(sigma->0) =     -131.42674123


--------------------------------------------------------------------------------------------------------




----------------------------------------- Iteration    1(   7)  ---------------------------------------


    POTLOK:  cpu time   19.0441: real time   19.0287
    SETDIJ:  cpu time    0.0290: real time    0.0285
     EDDAV:  cpu time  318.4696: real time  318.2089
       DOS:  cpu time    0.0010: real time    0.0005
    CHARGE:  cpu time   19.6440: real time   19.6284
    MIXING:  cpu time    0.7649: real time    0.7650
    --------------------------------------------
      LOOP:  cpu time  357.9536: real time  357.6635

 eigenvalue-minimisations  :   432
 total energy-change (2. order) : 0.1741720E+01  (-0.4498424E+00)
 number of electron      58.0000032 magnetization 
 augmentation part        2.6121586 magnetization 

 Broyden mixing:
  rms(total) = 0.51288E+00    rms(broyden)= 0.51276E+00
  rms(prec ) = 0.52550E+00
  weight for this iteration     100.00

 eigenvalues of (default mixing * dielectric matrix)
  average eigenvalue GAMMA=   1.5739
  1.1132  2.0347

 Free energy of the ion-electron system (eV)
  ---------------------------------------------------
  alpha Z        PSCENC =         0.51957394
  Ewald energy   TEWEN  =      6031.87356170
  -Hartree energ DENC   =     -7951.74089056
  -exchange      EXHF   =         0.00000000
  -V(xc)+E(xc)   XCENC  =       211.07132996
  PAW double counting   =      3728.56368867    -3739.68545213
  entropy T*S    EENTRO =         0.00000000
  eigenvalues    EBANDS =      -836.27016529
  atomic energy  EATOM  =      2425.98333211
  Solvation  Ediel_sol  =         0.00000000
  ---------------------------------------------------
  free energy    TOTEN  =      -129.68502159 eV

  energy without entropy =     -129.68502159  energy(sigma->0) =     -129.68502159


--------------------------------------------------------------------------------------------------------




----------------------------------------- Iteration    1(   8)  ---------------------------------------


    POTLOK:  cpu time   23.3764: real time   23.3569
    SETDIJ:  cpu time    0.0290: real time    0.0291
     EDDAV:  cpu time  328.9420: real time  328.6731
       DOS:  cpu time    0.0000: real time    0.0005
    CHARGE:  cpu time   19.4031: real time   19.3866
    MIXING:  cpu time    0.8259: real time    0.8255
    --------------------------------------------
      LOOP:  cpu time  372.5774: real time  372.6304

 eigenvalue-minimisations  :   448
 total energy-change (2. order) : 0.4913653E+00  (-0.8462982E-01)
 number of electron      58.0000033 magnetization 
 augmentation part        2.5870086 magnetization 

 Broyden mixing:
  rms(total) = 0.14899E+00    rms(broyden)= 0.14892E+00
  rms(prec ) = 0.15675E+00
  weight for this iteration     100.00

 eigenvalues of (default mixing * dielectric matrix)
  average eigenvalue GAMMA=   1.5423
  2.3788  0.9649  1.2831

 Free energy of the ion-electron system (eV)
  ---------------------------------------------------
  alpha Z        PSCENC =         0.51957394
  Ewald energy   TEWEN  =      6031.87356170
  -Hartree energ DENC   =     -7992.30533520
  -exchange      EXHF   =         0.00000000
  -V(xc)+E(xc)   XCENC  =       213.18219706
  PAW double counting   =      4544.11394658    -4555.40915172
  entropy T*S    EENTRO =         0.00000000
  eigenvalues    EBANDS =      -797.15178080
  atomic energy  EATOM  =      2425.98333211
  Solvation  Ediel_sol  =         0.00000000
  ---------------------------------------------------
  free energy    TOTEN  =      -129.19365632 eV

  energy without entropy =     -129.19365632  energy(sigma->0) =     -129.19365632


--------------------------------------------------------------------------------------------------------




----------------------------------------- Iteration    1(   9)  ---------------------------------------


    POTLOK:  cpu time   23.6334: real time   23.6135
    SETDIJ:  cpu time    0.0290: real time    0.0294
     EDDAV:  cpu time  321.4291: real time  321.1671
       DOS:  cpu time    0.0010: real time    0.0005
    CHARGE:  cpu time   19.2231: real time   19.2090
    MIXING:  cpu time    0.8539: real time    0.8537
    --------------------------------------------
      LOOP:  cpu time  365.1725: real time  364.8779

 eigenvalue-minimisations  :   448
 total energy-change (2. order) : 0.6746193E-01  (-0.9529006E-02)
 number of electron      58.0000032 magnetization 
 augmentation part        2.5776133 magnetization 

 Broyden mixing:
  rms(total) = 0.56165E-01    rms(broyden)= 0.56137E-01
  rms(prec ) = 0.64774E-01
  weight for this iteration     100.00

 eigenvalues of (default mixing * dielectric matrix)
  average eigenvalue GAMMA=   1.5241
  2.1896  1.0544  1.0544  1.7980

 Free energy of the ion-electron system (eV)
  ---------------------------------------------------
  alpha Z        PSCENC =         0.51957394
  Ewald energy   TEWEN  =      6031.87356170
  -Hartree energ DENC   =     -8005.82663438
  -exchange      EXHF   =         0.00000000
  -V(xc)+E(xc)   XCENC  =       213.73299520
  PAW double counting   =      4768.20409359    -4779.47456881
  entropy T*S    EENTRO =         0.00000000
  eigenvalues    EBANDS =      -784.13854775
  atomic energy  EATOM  =      2425.98333211
  Solvation  Ediel_sol  =         0.00000000
  ---------------------------------------------------
  free energy    TOTEN  =      -129.12619439 eV

  energy without entropy =     -129.12619439  energy(sigma->0) =     -129.12619439


--------------------------------------------------------------------------------------------------------




----------------------------------------- Iteration    1(  10)  ---------------------------------------


    POTLOK:  cpu time   22.5296: real time   22.5125
    SETDIJ:  cpu time    0.0290: real time    0.0286
     EDDAV:  cpu time  322.8499: real time  322.5856
       DOS:  cpu time    0.0000: real time    0.0005
    CHARGE:  cpu time   18.6732: real time   18.6571
    MIXING:  cpu time    0.8429: real time    0.8432
    --------------------------------------------
      LOOP:  cpu time  364.9265: real time  364.6318

 eigenvalue-minimisations  :   440
 total energy-change (2. order) : 0.1261523E-01  (-0.2336516E-02)
 number of electron      58.0000033 magnetization 
 augmentation part        2.5839949 magnetization 

 Broyden mixing:
  rms(total) = 0.25396E-01    rms(broyden)= 0.25372E-01
  rms(prec ) = 0.35452E-01
  weight for this iteration     100.00

 eigenvalues of (default mixing * dielectric matrix)
  average eigenvalue GAMMA=   1.4893
  2.1716  2.1716  0.9756  0.9756  1.1520

 Free energy of the ion-electron system (eV)
  ---------------------------------------------------
  alpha Z        PSCENC =         0.51957394
  Ewald energy   TEWEN  =      6031.87356170
  -Hartree energ DENC   =     -8011.01646461
  -exchange      EXHF   =         0.00000000
  -V(xc)+E(xc)   XCENC  =       213.75274256
  PAW double counting   =      4762.40737817    -4773.62715487
  entropy T*S    EENTRO =         0.00000000
  eigenvalues    EBANDS =      -779.00654818
  atomic energy  EATOM  =      2425.98333211
  Solvation  Ediel_sol  =         0.00000000
  ---------------------------------------------------
  free energy    TOTEN  =      -129.11357917 eV

  energy without entropy =     -129.11357917  energy(sigma->0) =     -129.11357917


--------------------------------------------------------------------------------------------------------




----------------------------------------- Iteration    1(  11)  ---------------------------------------


    POTLOK:  cpu time   22.5316: real time   22.5144
    SETDIJ:  cpu time    0.0290: real time    0.0292
     EDDAV:  cpu time  332.9264: real time  332.6533
       DOS:  cpu time    0.0010: real time    0.0006
    CHARGE:  cpu time   19.2381: real time   19.2231
    MIXING:  cpu time    0.9009: real time    0.8998
    --------------------------------------------
      LOOP:  cpu time  375.6289: real time  375.3256

 eigenvalue-minimisations  :   464
 total energy-change (2. order) : 0.5945351E-02  (-0.7670560E-03)
 number of electron      58.0000033 magnetization 
 augmentation part        2.5798226 magnetization 

 Broyden mixing:
  rms(total) = 0.15935E-01    rms(broyden)= 0.15927E-01
  rms(prec ) = 0.24729E-01
  weight for this iteration     100.00

 eigenvalues of (default mixing * dielectric matrix)
  average eigenvalue GAMMA=   1.5524
  2.4888  2.4888  0.9426  0.9426  1.2258  1.2258

 Free energy of the ion-electron system (eV)
  ---------------------------------------------------
  alpha Z        PSCENC =         0.51957394
  Ewald energy   TEWEN  =      6031.87356170
  -Hartree energ DENC   =     -8016.85458648
  -exchange      EXHF   =         0.00000000
  -V(xc)+E(xc)   XCENC  =       213.85888622
  PAW double counting   =      4764.73124575    -4775.95085534
  entropy T*S    EENTRO =         0.00000000
  eigenvalues    EBANDS =      -773.26879172
  atomic energy  EATOM  =      2425.98333211
  Solvation  Ediel_sol  =         0.00000000
  ---------------------------------------------------
  free energy    TOTEN  =      -129.10763382 eV

  energy without entropy =     -129.10763382  energy(sigma->0) =     -129.10763382


--------------------------------------------------------------------------------------------------------




----------------------------------------- Iteration    1(  12)  ---------------------------------------


    POTLOK:  cpu time   23.3564: real time   23.3377
    SETDIJ:  cpu time    0.0300: real time    0.0306
     EDDAV:  cpu time  315.4550: real time  315.1975
       DOS:  cpu time    0.0000: real time    0.0006
    CHARGE:  cpu time   19.0241: real time   19.0083
    MIXING:  cpu time    0.9859: real time    0.9847
    --------------------------------------------
      LOOP:  cpu time  358.8534: real time  358.5633

 eigenvalue-minimisations  :   427
 total energy-change (2. order) : 0.2051571E-03  (-0.5907567E-03)
 number of electron      58.0000033 magnetization 
 augmentation part        2.5789536 magnetization 

 Broyden mixing:
  rms(total) = 0.98180E-02    rms(broyden)= 0.98130E-02
  rms(prec ) = 0.15842E-01
  weight for this iteration     100.00

 eigenvalues of (default mixing * dielectric matrix)
  average eigenvalue GAMMA=   1.6000
  2.7345  2.7345  1.2973  1.2484  1.2484  0.9684  0.9684

 Free energy of the ion-electron system (eV)
  ---------------------------------------------------
  alpha Z        PSCENC =         0.51957394
  Ewald energy   TEWEN  =      6031.87356170
  -Hartree energ DENC   =     -8023.71376084
  -exchange      EXHF   =         0.00000000
  -V(xc)+E(xc)   XCENC  =       213.95007655
  PAW double counting   =      4760.11334751    -4771.32393983
  entropy T*S    EENTRO =         0.00000000
  eigenvalues    EBANDS =      -766.50961980
  atomic energy  EATOM  =      2425.98333211
  Solvation  Ediel_sol  =         0.00000000
  ---------------------------------------------------
  free energy    TOTEN  =      -129.10742866 eV

  energy without entropy =     -129.10742866  energy(sigma->0) =     -129.10742866


--------------------------------------------------------------------------------------------------------




----------------------------------------- Iteration    1(  13)  ---------------------------------------


    POTLOK:  cpu time   21.1548: real time   21.1374
    SETDIJ:  cpu time    0.0290: real time    0.0289
     EDDAV:  cpu time  305.7075: real time  305.4586
       DOS:  cpu time    0.0000: real time    0.0005
    CHARGE:  cpu time   20.3999: real time   20.3839
    MIXING:  cpu time    1.1738: real time    1.1727
    --------------------------------------------
      LOOP:  cpu time  348.4670: real time  348.1860

 eigenvalue-minimisations  :   432
 total energy-change (2. order) :-0.6021174E-02  (-0.4029122E-03)
 number of electron      58.0000033 magnetization 
 augmentation part        2.5780777 magnetization 

 Broyden mixing:
  rms(total) = 0.57672E-02    rms(broyden)= 0.57617E-02
  rms(prec ) = 0.95054E-02
  weight for this iteration     100.00

 eigenvalues of (default mixing * dielectric matrix)
  average eigenvalue GAMMA=   1.7153
  4.1447  2.4871  1.5708  1.5060  1.0290  1.0290  0.9779  0.9779

 Free energy of the ion-electron system (eV)
  ---------------------------------------------------
  alpha Z        PSCENC =         0.51957394
  Ewald energy   TEWEN  =      6031.87356170
  -Hartree energ DENC   =     -8029.09443258
  -exchange      EXHF   =         0.00000000
  -V(xc)+E(xc)   XCENC  =       214.00988329
  PAW double counting   =      4753.64035818    -4764.84955357
  entropy T*S    EENTRO =         0.00000000
  eigenvalues    EBANDS =      -761.19617291
  atomic energy  EATOM  =      2425.98333211
  Solvation  Ediel_sol  =         0.00000000
  ---------------------------------------------------
  free energy    TOTEN  =      -129.11344983 eV

  energy without entropy =     -129.11344983  energy(sigma->0) =     -129.11344983


--------------------------------------------------------------------------------------------------------




----------------------------------------- Iteration    1(  14)  ---------------------------------------


    POTLOK:  cpu time   23.0655: real time   23.0469
    SETDIJ:  cpu time    0.0290: real time    0.0290
     EDDAV:  cpu time  330.1578: real time  329.8892
       DOS:  cpu time    0.0000: real time    0.0005
    CHARGE:  cpu time   18.1922: real time   18.1782
    MIXING:  cpu time    1.0648: real time    1.0641
    --------------------------------------------
      LOOP:  cpu time  372.5134: real time  372.2124

 eigenvalue-minimisations  :   455
 total energy-change (2. order) :-0.6576593E-02  (-0.1815734E-03)
 number of electron      58.0000032 magnetization 
 augmentation part        2.5772031 magnetization 

 Broyden mixing:
  rms(total) = 0.38366E-02    rms(broyden)= 0.38326E-02
  rms(prec ) = 0.58439E-02
  weight for this iteration     100.00

 eigenvalues of (default mixing * dielectric matrix)
  average eigenvalue GAMMA=   1.8444
  5.0886  2.3774  2.3774  1.2487  1.2487  1.2657  1.0337  0.9796  0.9796

 Free energy of the ion-electron system (eV)
  ---------------------------------------------------
  alpha Z        PSCENC =         0.51957394
  Ewald energy   TEWEN  =      6031.87356170
  -Hartree energ DENC   =     -8032.70922193
  -exchange      EXHF   =         0.00000000
  -V(xc)+E(xc)   XCENC  =       214.03681240
  PAW double counting   =      4748.70442805    -4759.91131579
  entropy T*S    EENTRO =         0.00000000
  eigenvalues    EBANDS =      -757.61719690
  atomic energy  EATOM  =      2425.98333211
  Solvation  Ediel_sol  =         0.00000000
  ---------------------------------------------------
  free energy    TOTEN  =      -129.12002643 eV

  energy without entropy =     -129.12002643  energy(sigma->0) =     -129.12002643


--------------------------------------------------------------------------------------------------------




----------------------------------------- Iteration    1(  15)  ---------------------------------------


    POTLOK:  cpu time   20.6609: real time   20.6436
    SETDIJ:  cpu time    0.0280: real time    0.0286
     EDDAV:  cpu time  292.8215: real time  292.5815
       DOS:  cpu time    0.0000: real time    0.0005
    CHARGE:  cpu time   19.6590: real time   19.6428
    MIXING:  cpu time    1.2308: real time    1.2294
    --------------------------------------------
      LOOP:  cpu time  334.4012: real time  334.1305

 eigenvalue-minimisations  :   412
 total energy-change (2. order) :-0.8459246E-02  (-0.9619615E-04)
 number of electron      58.0000033 magnetization 
 augmentation part        2.5771065 magnetization 

 Broyden mixing:
  rms(total) = 0.23227E-02    rms(broyden)= 0.23208E-02
  rms(prec ) = 0.33961E-02
  weight for this iteration     100.00

 eigenvalues of (default mixing * dielectric matrix)
  average eigenvalue GAMMA=   1.9303
  5.7312  2.8727  2.2602  1.8684  1.4350  0.9763  1.0542  1.0542  1.0255  1.0255

 Free energy of the ion-electron system (eV)
  ---------------------------------------------------
  alpha Z        PSCENC =         0.51957394
  Ewald energy   TEWEN  =      6031.87356170
  -Hartree energ DENC   =     -8034.50232642
  -exchange      EXHF   =         0.00000000
  -V(xc)+E(xc)   XCENC  =       214.03565491
  PAW double counting   =      4748.31033761    -4759.51575617
  entropy T*S    EENTRO =         0.00000000
  eigenvalues    EBANDS =      -755.83286335
  atomic energy  EATOM  =      2425.98333211
  Solvation  Ediel_sol  =         0.00000000
  ---------------------------------------------------
  free energy    TOTEN  =      -129.12848567 eV

  energy without entropy =     -129.12848567  energy(sigma->0) =     -129.12848567


--------------------------------------------------------------------------------------------------------




----------------------------------------- Iteration    1(  16)  ---------------------------------------


    POTLOK:  cpu time   22.9695: real time   22.9517
    SETDIJ:  cpu time    0.0290: real time    0.0292
     EDDAV:  cpu time  287.7913: real time  287.5552
       DOS:  cpu time    0.0000: real time    0.0005
    CHARGE:  cpu time   18.4312: real time   18.4164
    MIXING:  cpu time    1.2628: real time    1.2617
    --------------------------------------------
      LOOP:  cpu time  330.4848: real time  330.2188

 eigenvalue-minimisations  :   380
 total energy-change (2. order) :-0.5679525E-02  (-0.4508801E-04)
 number of electron      58.0000032 magnetization 
 augmentation part        2.5770091 magnetization 

 Broyden mixing:
  rms(total) = 0.13300E-02    rms(broyden)= 0.13294E-02
  rms(prec ) = 0.19538E-02
  weight for this iteration     100.00

 eigenvalues of (default mixing * dielectric matrix)
  average eigenvalue GAMMA=   1.9742
  6.4228  3.2130  2.3676  1.9492  1.3376  1.3376  1.0095  1.0352  1.0352  1.0045
  1.0045

 Free energy of the ion-electron system (eV)
  ---------------------------------------------------
  alpha Z        PSCENC =         0.51957394
  Ewald energy   TEWEN  =      6031.87356170
  -Hartree energ DENC   =     -8035.11019811
  -exchange      EXHF   =         0.00000000
  -V(xc)+E(xc)   XCENC  =       214.02604887
  PAW double counting   =      4747.87433392    -4759.07937363
  entropy T*S    EENTRO =         0.00000000
  eigenvalues    EBANDS =      -755.22144400
  atomic energy  EATOM  =      2425.98333211
  Solvation  Ediel_sol  =         0.00000000
  ---------------------------------------------------
  free energy    TOTEN  =      -129.13416520 eV

  energy without entropy =     -129.13416520  energy(sigma->0) =     -129.13416520


--------------------------------------------------------------------------------------------------------




----------------------------------------- Iteration    1(  17)  ---------------------------------------


    POTLOK:  cpu time   20.9738: real time   20.9564
    SETDIJ:  cpu time    0.0280: real time    0.0288
     EDDAV:  cpu time  268.0552: real time  267.8345
       DOS:  cpu time    0.0000: real time    0.0006
    CHARGE:  cpu time   19.7190: real time   19.7027
    MIXING:  cpu time    1.4738: real time    1.4720
    --------------------------------------------
      LOOP:  cpu time  310.2508: real time  309.9990

 eigenvalue-minimisations  :   368
 total energy-change (2. order) :-0.2540199E-02  (-0.1225955E-04)
 number of electron      58.0000032 magnetization 
 augmentation part        2.5770435 magnetization 

 Broyden mixing:
  rms(total) = 0.82347E-03    rms(broyden)= 0.82297E-03
  rms(prec ) = 0.12279E-02
  weight for this iteration     100.00

 eigenvalues of (default mixing * dielectric matrix)
  average eigenvalue GAMMA=   2.0444
  7.1302  3.6828  2.3025  2.3025  1.5262  1.5262  1.0493  1.0493  0.9826  0.9826
  0.9990  0.9990

 Free energy of the ion-electron system (eV)
  ---------------------------------------------------
  alpha Z        PSCENC =         0.51957394
  Ewald energy   TEWEN  =      6031.87356170
  -Hartree energ DENC   =     -8035.41028608
  -exchange      EXHF   =         0.00000000
  -V(xc)+E(xc)   XCENC  =       214.02248625
  PAW double counting   =      4748.33661248    -4759.54139740
  entropy T*S    EENTRO =         0.00000000
  eigenvalues    EBANDS =      -754.92058839
  atomic energy  EATOM  =      2425.98333211
  Solvation  Ediel_sol  =         0.00000000
  ---------------------------------------------------
  free energy    TOTEN  =      -129.13670540 eV

  energy without entropy =     -129.13670540  energy(sigma->0) =     -129.13670540


--------------------------------------------------------------------------------------------------------




----------------------------------------- Iteration    1(  18)  ---------------------------------------


    POTLOK:  cpu time   22.9825: real time   22.9640
    SETDIJ:  cpu time    0.0290: real time    0.0292
     EDDAV:  cpu time  279.8315: real time  279.6025
       DOS:  cpu time    0.0010: real time    0.0005
    CHARGE:  cpu time   19.5360: real time   19.5200
    MIXING:  cpu time    1.5588: real time    1.5586
    --------------------------------------------
      LOOP:  cpu time  323.9388: real time  323.6794

 eigenvalue-minimisations  :   347
 total energy-change (2. order) :-0.1751911E-02  (-0.1188742E-04)
 number of electron      58.0000032 magnetization 
 augmentation part        2.5770174 magnetization 

 Broyden mixing:
  rms(total) = 0.54132E-03    rms(broyden)= 0.54114E-03
  rms(prec ) = 0.76043E-03
  weight for this iteration     100.00

 eigenvalues of (default mixing * dielectric matrix)
  average eigenvalue GAMMA=   2.0943
  7.5923  4.1746  2.4269  2.4269  1.7504  1.3997  1.3997  1.0682  1.0682  0.9748
  0.9748  0.9850  0.9850

 Free energy of the ion-electron system (eV)
  ---------------------------------------------------
  alpha Z        PSCENC =         0.51957394
  Ewald energy   TEWEN  =      6031.87356170
  -Hartree energ DENC   =     -8035.56652187
  -exchange      EXHF   =         0.00000000
  -V(xc)+E(xc)   XCENC  =       214.01941117
  PAW double counting   =      4748.38008273    -4759.58491873
  entropy T*S    EENTRO =         0.00000000
  eigenvalues    EBANDS =      -754.76297837
  atomic energy  EATOM  =      2425.98333211
  Solvation  Ediel_sol  =         0.00000000
  ---------------------------------------------------
  free energy    TOTEN  =      -129.13845731 eV

  energy without entropy =     -129.13845731  energy(sigma->0) =     -129.13845731


--------------------------------------------------------------------------------------------------------




----------------------------------------- Iteration    1(  19)  ---------------------------------------


    POTLOK:  cpu time   21.8887: real time   21.8710
    SETDIJ:  cpu time    0.0290: real time    0.0286
     EDDAV:  cpu time  262.2561: real time  262.0407
       DOS:  cpu time    0.0010: real time    0.0005
    CHARGE:  cpu time   18.9211: real time   18.9061
    MIXING:  cpu time    2.1307: real time    2.1294
    --------------------------------------------
      LOOP:  cpu time  305.2276: real time  304.9800

 eigenvalue-minimisations  :   360
 total energy-change (2. order) :-0.9127112E-03  (-0.5162972E-05)
 number of electron      58.0000032 magnetization 
 augmentation part        2.5769777 magnetization 

 Broyden mixing:
  rms(total) = 0.30532E-03    rms(broyden)= 0.30502E-03
  rms(prec ) = 0.43464E-03
  weight for this iteration     100.00

 eigenvalues of (default mixing * dielectric matrix)
  average eigenvalue GAMMA=   2.1422
  8.0739  4.7756  2.6157  2.6157  1.7470  1.5462  1.5462  1.0536  1.0536  0.9384
  1.0379  1.0379  0.9748  0.9748

 Free energy of the ion-electron system (eV)
  ---------------------------------------------------
  alpha Z        PSCENC =         0.51957394
  Ewald energy   TEWEN  =      6031.87356170
  -Hartree energ DENC   =     -8035.64726779
  -exchange      EXHF   =         0.00000000
  -V(xc)+E(xc)   XCENC  =       214.01892890
  PAW double counting   =      4748.57160094    -4759.77661812
  entropy T*S    EENTRO =         0.00000000
  eigenvalues    EBANDS =      -754.68248170
  atomic energy  EATOM  =      2425.98333211
  Solvation  Ediel_sol  =         0.00000000
  ---------------------------------------------------
  free energy    TOTEN  =      -129.13937002 eV

  energy without entropy =     -129.13937002  energy(sigma->0) =     -129.13937002


--------------------------------------------------------------------------------------------------------




----------------------------------------- Iteration    1(  20)  ---------------------------------------


    POTLOK:  cpu time   24.2383: real time   24.2195
    SETDIJ:  cpu time    0.0290: real time    0.0286
     EDDAV:  cpu time  290.8958: real time  290.6594
       DOS:  cpu time    0.0000: real time    0.0005
    CHARGE:  cpu time   18.5982: real time   18.5839
    MIXING:  cpu time    1.8217: real time    1.8203
    --------------------------------------------
      LOOP:  cpu time  335.5870: real time  335.3164

 eigenvalue-minimisations  :   364
 total energy-change (2. order) :-0.3982631E-03  (-0.1728200E-05)
 number of electron      58.0000032 magnetization 
 augmentation part        2.5769812 magnetization 

 Broyden mixing:
  rms(total) = 0.19072E-03    rms(broyden)= 0.19062E-03
  rms(prec ) = 0.26848E-03
  weight for this iteration     100.00

 eigenvalues of (default mixing * dielectric matrix)
  average eigenvalue GAMMA=   2.1459
  8.3018  5.1948  2.8514  2.4959  1.9106  1.7469  1.2240  1.2240  1.1267  1.0333
  1.0333  0.9846  0.9846  1.0386  1.0386

 Free energy of the ion-electron system (eV)
  ---------------------------------------------------
  alpha Z        PSCENC =         0.51957394
  Ewald energy   TEWEN  =      6031.87356170
  -Hartree energ DENC   =     -8035.67155918
  -exchange      EXHF   =         0.00000000
  -V(xc)+E(xc)   XCENC  =       214.01788200
  PAW double counting   =      4748.34798077    -4759.55294772
  entropy T*S    EENTRO =         0.00000000
  eigenvalues    EBANDS =      -754.65759190
  atomic energy  EATOM  =      2425.98333211
  Solvation  Ediel_sol  =         0.00000000
  ---------------------------------------------------
  free energy    TOTEN  =      -129.13976828 eV

  energy without entropy =     -129.13976828  energy(sigma->0) =     -129.13976828


--------------------------------------------------------------------------------------------------------




----------------------------------------- Iteration    1(  21)  ---------------------------------------


    POTLOK:  cpu time   22.0177: real time   22.0004
    SETDIJ:  cpu time    0.0300: real time    0.0300
     EDDAV:  cpu time  248.7102: real time  248.5070
       DOS:  cpu time    0.0000: real time    0.0005
    CHARGE:  cpu time   18.7342: real time   18.7191
    MIXING:  cpu time    1.5558: real time    1.5549
    --------------------------------------------
      LOOP:  cpu time  291.0498: real time  290.8157

 eigenvalue-minimisations  :   328
 total energy-change (2. order) :-0.1944137E-03  (-0.7130112E-06)
 number of electron      58.0000032 magnetization 
 augmentation part        2.5769696 magnetization 

 Broyden mixing:
  rms(total) = 0.12272E-03    rms(broyden)= 0.12265E-03
  rms(prec ) = 0.17272E-03
  weight for this iteration     100.00

 eigenvalues of (default mixing * dielectric matrix)
  average eigenvalue GAMMA=   2.2177
  8.4917  5.7432  3.3386  2.6932  2.2758  1.6046  1.6046  1.5863  1.0485  1.0485
  1.0875  1.0875  0.9575  0.9575  0.9788  0.9788

 Free energy of the ion-electron system (eV)
  ---------------------------------------------------
  alpha Z        PSCENC =         0.51957394
  Ewald energy   TEWEN  =      6031.87356170
  -Hartree energ DENC   =     -8035.68061190
  -exchange      EXHF   =         0.00000000
  -V(xc)+E(xc)   XCENC  =       214.01762256
  PAW double counting   =      4748.41427765    -4759.61924296
  entropy T*S    EENTRO =         0.00000000
  eigenvalues    EBANDS =      -754.64847580
  atomic energy  EATOM  =      2425.98333211
  Solvation  Ediel_sol  =         0.00000000
  ---------------------------------------------------
  free energy    TOTEN  =      -129.13996270 eV

  energy without entropy =     -129.13996270  energy(sigma->0) =     -129.13996270


--------------------------------------------------------------------------------------------------------




----------------------------------------- Iteration    1(  22)  ---------------------------------------


    POTLOK:  cpu time   20.4189: real time   20.4030
    SETDIJ:  cpu time    0.0300: real time    0.0294
     EDDAV:  cpu time  249.1001: real time  248.8970
       DOS:  cpu time    0.0000: real time    0.0005
    CHARGE:  cpu time   18.5552: real time   18.5399
    MIXING:  cpu time    1.9457: real time    1.9439
    --------------------------------------------
      LOOP:  cpu time  290.0529: real time  289.8174

 eigenvalue-minimisations  :   340
 total energy-change (2. order) :-0.1505440E-03  (-0.3816700E-06)
 number of electron      58.0000032 magnetization 
 augmentation part        2.5769759 magnetization 

 Broyden mixing:
  rms(total) = 0.81953E-04    rms(broyden)= 0.81896E-04
  rms(prec ) = 0.10288E-03
  weight for this iteration     100.00

 eigenvalues of (default mixing * dielectric matrix)
  average eigenvalue GAMMA=   2.2067
  8.5695  6.1323  3.6232  2.4909  2.4909  1.7332  1.7332  1.2313  1.2313  1.1611
  1.1611  1.0404  1.0404  0.9839  0.9429  0.9746  0.9746

 Free energy of the ion-electron system (eV)
  ---------------------------------------------------
  alpha Z        PSCENC =         0.51957394
  Ewald energy   TEWEN  =      6031.87356170
  -Hartree energ DENC   =     -8035.69426437
  -exchange      EXHF   =         0.00000000
  -V(xc)+E(xc)   XCENC  =       214.01726384
  PAW double counting   =      4748.31727458    -4759.52222812
  entropy T*S    EENTRO =         0.00000000
  eigenvalues    EBANDS =      -754.63462693
  atomic energy  EATOM  =      2425.98333211
  Solvation  Ediel_sol  =         0.00000000
  ---------------------------------------------------
  free energy    TOTEN  =      -129.14011324 eV

  energy without entropy =     -129.14011324  energy(sigma->0) =     -129.14011324


--------------------------------------------------------------------------------------------------------




----------------------------------------- Iteration    1(  23)  ---------------------------------------


    POTLOK:  cpu time   21.2178: real time   21.2009
    SETDIJ:  cpu time    0.0280: real time    0.0287
     EDDAV:  cpu time  276.0600: real time  275.8337
       DOS:  cpu time    0.0000: real time    0.0006
    --------------------------------------------
      LOOP:  cpu time  297.3078: real time  297.1497

 eigenvalue-minimisations  :   368
 total energy-change (2. order) :-0.3450422E-04  (-0.8769993E-07)
 number of electron      58.0000032 magnetization 
 augmentation part        2.5769759 magnetization 

 Free energy of the ion-electron system (eV)
  ---------------------------------------------------
  alpha Z        PSCENC =         0.51957394
  Ewald energy   TEWEN  =      6031.87356170
  -Hartree energ DENC   =     -8035.70286510
  -exchange      EXHF   =         0.00000000
  -V(xc)+E(xc)   XCENC  =       214.01732013
  PAW double counting   =      4748.34974115    -4759.55470196
  entropy T*S    EENTRO =         0.00000000
  eigenvalues    EBANDS =      -754.62610971
  atomic energy  EATOM  =      2425.98333211
  Solvation  Ediel_sol  =         0.00000000
  ---------------------------------------------------
  free energy    TOTEN  =      -129.14014774 eV

  energy without entropy =     -129.14014774  energy(sigma->0) =     -129.14014774


--------------------------------------------------------------------------------------------------------




 average (electrostatic) potential at core
  the test charge radii are     0.5201  0.6991  0.7089  0.7215
  (the norm of the test charge is              1.0000)
       1 -42.3059       2 -42.5135       3 -42.5956       4 -44.7901       5 -42.4361
       6 -41.6881       7 -41.8738       8 -42.0535       9 -43.1024      10 -41.6788
      11 -41.6406      12 -41.9595      13 -59.0882      14 -61.6036      15 -60.1755
      16 -58.5924      17 -60.8567      18 -59.0537      19 -74.8087      20 -73.8002
      21 -80.0579      22 -79.2351
 
 
 
 E-fermi :  -4.6143     XC(G=0):  -0.1520     alpha+bet : -0.0465


 k-point     1 :       0.2500    0.2500    0.2500
  band No.  band energies     occupation 
      1     -26.2428      2.00000
      2     -25.5376      2.00000
      3     -23.4910      2.00000
      4     -22.5885      2.00000
      5     -19.5896      2.00000
      6     -18.2283      2.00000
      7     -17.3851      2.00000
      8     -15.9733      2.00000
      9     -14.9899      2.00000
     10     -13.8645      2.00000
     11     -12.9815      2.00000
     12     -12.4859      2.00000
     13     -11.7744      2.00000
     14     -11.3526      2.00000
     15     -11.0485      2.00000
     16     -10.6518      2.00000
     17     -10.3160      2.00000
     18     -10.0862      2.00000
     19     -10.0106      2.00000
     20      -9.8529      2.00000
     21      -9.2641      2.00000
     22      -9.1895      2.00000
     23      -9.0038      2.00000
     24      -8.7835      2.00000
     25      -8.4174      2.00000
     26      -6.5414      2.00000
     27      -6.3236      2.00000
     28      -5.7841      2.00000
     29      -5.5549      2.00000
     30      -1.1386      0.00000
     31      -1.0883      0.00000
     32      -0.5122      0.00000
     33      -0.2164      0.00000
     34      -0.1082      0.00000
     35      -0.0849      0.00000
     36       0.0165      0.00000
     37       0.0810      0.00000
     38       0.1105      0.00000
     39       0.1186      0.00000
     40       0.1496      0.00000
     41       0.1791      0.00000

 k-point     2 :      -0.2500    0.2500    0.2500
  band No.  band energies     occupation 
      1     -26.2428      2.00000
      2     -25.5376      2.00000
      3     -23.4910      2.00000
      4     -22.5885      2.00000
      5     -19.5896      2.00000
      6     -18.2283      2.00000
      7     -17.3851      2.00000
      8     -15.9733      2.00000
      9     -14.9899      2.00000
     10     -13.8645      2.00000
     11     -12.9815      2.00000
     12     -12.4859      2.00000
     13     -11.7744      2.00000
     14     -11.3526      2.00000
     15     -11.0485      2.00000
     16     -10.6518      2.00000
     17     -10.3160      2.00000
     18     -10.0862      2.00000
     19     -10.0106      2.00000
     20      -9.8529      2.00000
     21      -9.2641      2.00000
     22      -9.1895      2.00000
     23      -9.0038      2.00000
     24      -8.7835      2.00000
     25      -8.4173      2.00000
     26      -6.5414      2.00000
     27      -6.3236      2.00000
     28      -5.7841      2.00000
     29      -5.5549      2.00000
     30      -1.1386      0.00000
     31      -1.0883      0.00000
     32      -0.5122      0.00000
     33      -0.2164      0.00000
     34      -0.1076      0.00000
     35      -0.0859      0.00000
     36       0.0175      0.00000
     37       0.0806      0.00000
     38       0.1033      0.00000
     39       0.1203      0.00000
     40       0.1646      0.00000
     41       0.1790      0.00000

 k-point     3 :       0.2500   -0.2500    0.2500
  band No.  band energies     occupation 
      1     -26.2428      2.00000
      2     -25.5376      2.00000
      3     -23.4910      2.00000
      4     -22.5885      2.00000
      5     -19.5896      2.00000
      6     -18.2283      2.00000
      7     -17.3851      2.00000
      8     -15.9733      2.00000
      9     -14.9899      2.00000
[...]

 Free energy of the ion-electron system (eV)
  ---------------------------------------------------
  alpha Z        PSCENC =         0.51957394
  Ewald energy   TEWEN  =      6039.80479644
  -Hartree energ DENC   =     -8042.99194553
  -exchange      EXHF   =         0.00000000
  -V(xc)+E(xc)   XCENC  =       214.10339980
  PAW double counting   =      4763.18546367    -4774.39766997
  entropy T*S    EENTRO =         0.00000000
  eigenvalues    EBANDS =      -755.40309829
  atomic energy  EATOM  =      2425.98333211
  Solvation  Ediel_sol  =         0.00000000
  ---------------------------------------------------
  free energy    TOTEN  =      -129.19614783 eV

  energy without entropy =     -129.19614783  energy(sigma->0) =     -129.19614783


--------------------------------------------------------------------------------------------------------




 average (electrostatic) potential at core
  the test charge radii are     0.5201  0.6991  0.7089  0.7215
  (the norm of the test charge is              1.0000)
       1 -42.3336       2 -42.5999       3 -42.6148       4 -44.7893       5 -42.4282
       6 -41.7283       7 -41.9122       8 -42.0759       9 -43.0215      10 -41.6620
      11 -41.6450      12 -41.9273      13 -59.1238      14 -61.6151      15 -60.1535
      16 -58.6359      17 -60.8156      18 -59.0335      19 -74.8278      20 -73.7796
      21 -80.1054      22 -79.1793
 
 
 
 E-fermi :  -4.6058     XC(G=0):  -0.1309     alpha+bet : -0.0465


 k-point     1 :       0.2500    0.2500    0.2500
  band No.  band energies     occupation 
      1     -26.2830      2.00000
      2     -25.4987      2.00000
      3     -23.5542      2.00000
      4     -22.5649      2.00000
      5     -19.6666      2.00000
      6     -18.2454      2.00000
      7     -17.3851      2.00000
      8     -15.9797      2.00000
      9     -14.9874      2.00000
     10     -13.8874      2.00000
     11     -13.0204      2.00000
     12     -12.4927      2.00000
     13     -11.8046      2.00000
     14     -11.3650      2.00000
     15     -11.0707      2.00000
     16     -10.6520      2.00000
     17     -10.3582      2.00000
     18     -10.1173      2.00000
     19      -9.9760      2.00000
     20      -9.8876      2.00000
     21      -9.3251      2.00000
     22      -9.2169      2.00000
     23      -9.0046      2.00000
     24      -8.7893      2.00000
     25      -8.3852      2.00000
     26      -6.5542      2.00000
     27      -6.3239      2.00000
     28      -5.7658      2.00000
     29      -5.5397      2.00000
     30      -1.1293      0.00000
     31      -1.0833      0.00000
     32      -0.4670      0.00000
     33      -0.2115      0.00000
     34      -0.1106      0.00000
     35      -0.0665      0.00000
     36       0.0393      0.00000
     37       0.1026      0.00000
     38       0.1334      0.00000
     39       0.1421      0.00000
     40       0.1706      0.00000
     41       0.2016      0.00000

 k-point     2 :      -0.2500    0.2500    0.2500
  band No.  band energies     occupation 
      1     -26.2830      2.00000
      2     -25.4987      2.00000
      3     -23.5542      2.00000
      4     -22.5649      2.00000
      5     -19.6666      2.00000
      6     -18.2454      2.00000
      7     -17.3851      2.00000
      8     -15.9797      2.00000
      9     -14.9874      2.00000
     10     -13.8874      2.00000
     11     -13.0204      2.00000
     12     -12.4927      2.00000
     13     -11.8046      2.00000
     14     -11.3650      2.00000
     15     -11.0707      2.00000
     16     -10.6520      2.00000
     17     -10.3582      2.00000
     18     -10.1173      2.00000
     19      -9.9760      2.00000
     20      -9.8876      2.00000
     21      -9.3251      2.00000
     22      -9.2169      2.00000
     23      -9.0046      2.00000
     24      -8.7893      2.00000
     25      -8.3852      2.00000
     26      -6.5542      2.00000
     27      -6.3239      2.00000
     28      -5.7658      2.00000
     29      -5.5397      2.00000
     30      -1.1293      0.00000
     31      -1.0833      0.00000
     32      -0.4670      0.00000
     33      -0.2115      0.00000
     34      -0.1104      0.00000
     35      -0.0670      0.00000
     36       0.0406      0.00000
     37       0.1018      0.00000
     38       0.1259      0.00000
     39       0.1443      0.00000
     40       0.1866      0.00000
     41       0.2003      0.00000

 k-point     3 :       0.2500   -0.2500    0.2500
  band No.  band energies     occupation 
      1     -26.2830      2.00000
      2     -25.4987      2.00000
      3     -23.5543      2.00000
      4     -22.5649      2.00000
      5     -19.6666      2.00000
      6     -18.2454      2.00000
      7     -17.3851      2.00000
      8     -15.9797      2.00000
      9     -14.9874      2.00000
     10     -13.8874      2.00000
     11     -13.0204      2.00000
     12     -12.4927      2.00000
     13     -11.8046      2.00000
     14     -11.3650      2.00000
     15     -11.0707      2.00000
     16     -10.6520      2.00000
     17     -10.3582      2.00000
     18     -10.1173      2.00000
     19      -9.9760      2.00000
     20      -9.8876      2.00000
     21      -9.3251      2.00000
     22      -9.2169      2.00000
     23      -9.0046      2.00000
     24      -8.7893      2.00000
     25      -8.3852      2.00000
     26      -6.5542      2.00000
     27      -6.3239      2.00000
     28      -5.7658      2.00000
     29      -5.5397      2.00000
     30      -1.1293      0.00000
     31      -1.0833      0.00000
     32      -0.4670      0.00000
     33      -0.2115      0.00000
     34      -0.1104      0.00000
     35      -0.0666      0.00000
     36       0.0366      0.00000
     37       0.1121      0.00000
     38       0.1229      0.00000
     39       0.1437      0.00000
     40       0.1900      0.00000
     41       0.1965      0.00000

 k-point     4 :      -0.2500   -0.2500    0.2500
  band No.  band energies     occupation 
      1     -26.2830      2.00000
      2     -25.4987      2.00000
      3     -23.5542      2.00000
      4     -22.5649      2.00000
      5     -19.6666      2.00000
      6     -18.2454      2.00000
      7     -17.3851      2.00000
      8     -15.9797      2.00000
      9     -14.9874      2.00000
     10     -13.8874      2.00000
     11     -13.0204      2.00000
     12     -12.4927      2.00000
     13     -11.8046      2.00000
     14     -11.3650      2.00000
     15     -11.0707      2.00000
     16     -10.6520      2.00000
     17     -10.3582      2.00000
     18     -10.1173      2.00000
     19      -9.9760      2.00000
     20      -9.8876      2.00000
     21      -9.3251      2.00000
     22      -9.2169      2.00000
     23      -9.0046      2.00000
     24      -8.7893      2.00000
     25      -8.3852      2.00000
     26      -6.5542      2.00000
     27      -6.3239      2.00000
     28      -5.7658      2.00000
     29      -5.5397      2.00000
     30      -1.1293      0.00000
     31      -1.0833      0.00000
     32      -0.4670      0.00000
     33      -0.2116      0.00000
     34      -0.1103      0.00000
     35      -0.0667      0.00000
     36       0.0362      0.00000
     37       0.1185      0.00000
     38       0.1284      0.00000
     39       0.1334      0.00000
     40       0.1757      0.00000
     41       0.1959      0.00000


--------------------------------------------------------------------------------------------------------


 soft charge-density along one line, spin component           1
         0         1         2         3         4         5         6         7         8         9
 total charge-density along one line
 
 pseudopotential strength for first ion, spin component:           1
 -2.352  -4.056   0.002   0.000  -0.001
 -4.056  -6.906   0.005  -0.001  -0.003
  0.002   0.005  -0.333  -0.001  -0.002
  0.000  -0.001  -0.001  -0.336   0.000
 -0.001  -0.003  -0.002   0.000  -0.335
 total augmentation occupancy for first ion, spin component:           1
  3.535  -0.637  -0.381   0.073   0.217
 -0.637   0.130   0.070  -0.013  -0.040
 -0.381   0.070   0.043  -0.007  -0.021
  0.073  -0.013  -0.007   0.010   0.004
  0.217  -0.040  -0.021   0.004   0.019


------------------------ aborting loop because EDIFF is reached ----------------------------------------


    CHARGE:  cpu time   16.4615: real time   16.4480
    FORLOC:  cpu time    5.7741: real time    5.7706
    FORNL :  cpu time   60.2798: real time   60.2327
    STRESS:  cpu time  182.2143: real time  182.0719
    FORCOR:  cpu time   23.6364: real time   23.6182
    FORHAR:  cpu time   10.5054: real time   10.4963
    MIXING:  cpu time    0.7439: real time    0.7435
    OFIELD:  cpu time    0.0000: real time    0.0000

  FORCE on cell =-STRESS in cart. coord.  units (eV):
  Direction    XX          YY          ZZ          XY          YZ          ZX
  --------------------------------------------------------------------------------------
  Alpha Z     0.51957     0.51957     0.51957
  Ewald    3485.92973  2637.20086   -83.32694   110.48464   -25.10637  -136.02733
  Hartree  3870.93894  3076.87369  1095.17867   100.93297    30.98934   -90.38689
  E(xc)    -229.06801  -229.40269  -232.58736    -0.09276    -0.39250    -0.15109
  Local   -7945.32325 -6298.68591 -1662.33965  -216.26179   -19.86008   222.44024
  n-local  -133.53718  -133.83439  -131.79488     0.70968     0.98587    -0.04967
  augment    14.32560    14.21330    14.92341     0.07114     0.23878     0.18504
  Kinetic   932.68093   929.55461   995.55352     4.09095    12.99913     3.96664
  Fock        0.00000     0.00000     0.00000     0.00000     0.00000     0.00000
  -------------------------------------------------------------------------------------
  Total      -3.53366    -3.56095    -3.87366    -0.06516    -0.14582    -0.02306
  in kB      -0.20969    -0.21131    -0.22986    -0.00387    -0.00865    -0.00137
  external pressure =       -0.22 kB  Pullay stress =        0.00 kB


 VOLUME and BASIS-vectors are now :
 -----------------------------------------------------------------------------
  energy-cutoff  :      400.00
  volume of cell :    27000.00
      direct lattice vectors                 reciprocal lattice vectors
    30.000000000  0.000000000  0.000000000     0.033333333  0.000000000  0.000000000
     0.000000000 30.000000000  0.000000000     0.000000000  0.033333333  0.000000000
     0.000000000  0.000000000 30.000000000     0.000000000  0.000000000  0.033333333

  length of vectors
    30.000000000 30.000000000 30.000000000     0.033333333  0.033333333  0.033333333


 FORCES acting on ions
    electron-ion (+dipol)            ewald-force                    non-local-force                 convergence-correction
 -----------------------------------------------------------------------------------------------
   0.686E+02 -.522E+02 0.891E+01   -.714E+02 0.571E+02 -.983E+01   0.279E+01 -.487E+01 0.937E+00   -.252E-04 -.663E-04 -.127E-04
   0.546E+02 0.444E+02 0.468E+02   -.561E+02 -.480E+02 -.507E+02   0.152E+01 0.359E+01 0.385E+01   0.420E-06 -.640E-04 -.213E-04
   0.537E+02 0.240E+02 -.617E+02   -.552E+02 -.260E+02 0.666E+02   0.154E+01 0.195E+01 -.489E+01   -.771E-05 -.430E-04 -.167E-04
   0.604E+02 0.911E+02 -.306E+02   -.643E+02 -.971E+02 0.321E+02   0.394E+01 0.605E+01 -.149E+01   0.226E-04 -.861E-04 -.181E-04
   -.183E+02 0.495E+02 -.867E+02   0.197E+02 -.515E+02 0.917E+02   -.135E+01 0.203E+01 -.503E+01   0.711E-04 -.478E-04 0.319E-05
   -.620E+02 0.613E+02 0.170E+02   0.674E+02 -.630E+02 -.170E+02   -.544E+01 0.168E+01 -.359E-01   -.251E-05 -.547E-04 0.411E-04
   0.101E+02 0.160E+02 0.848E+02   -.113E+02 -.144E+02 -.899E+02   0.122E+01 -.166E+01 0.512E+01   0.102E-04 -.554E-04 -.239E-04
   0.306E+02 0.841E+02 -.469E-02   -.338E+02 -.884E+02 0.117E+01   0.313E+01 0.427E+01 -.117E+01   0.520E-04 -.365E-04 0.833E-06
   0.406E+02 -.593E+02 0.112E+01   -.472E+02 0.611E+02 -.172E+01   0.656E+01 -.187E+01 0.575E+00   0.875E-04 -.945E-04 -.217E-05
   -.711E+02 -.240E+02 -.461E+02   0.752E+02 0.231E+02 0.498E+02   -.416E+01 0.887E+00 -.370E+01   0.456E-05 -.563E-04 0.275E-04
   -.491E+02 -.296E+02 0.657E+02   0.515E+02 0.293E+02 -.707E+02   -.232E+01 0.268E+00 0.504E+01   0.190E-04 -.613E-04 0.340E-04
   0.297E+01 -.867E+02 -.824E+01   -.510E+01 0.919E+02 0.902E+01   0.214E+01 -.516E+01 -.779E+00   0.386E-04 -.718E-04 0.989E-05
   0.224E+03 0.176E+02 -.946E+01   -.225E+03 -.166E+02 0.930E+01   0.941E+00 -.982E+00 0.168E+00   -.405E-04 -.246E-03 0.630E-04
   0.165E+03 0.179E+02 -.139E+02   -.170E+03 -.183E+02 0.139E+02   0.502E+01 0.398E+00 0.348E-01   0.230E-03 -.146E-03 -.485E-04
   -.245E+02 0.116E+03 -.713E+02   0.297E+02 -.117E+03 0.705E+02   -.529E+01 0.114E+01 0.738E+00   0.284E-03 -.175E-03 0.102E-03
   -.225E+02 0.205E+03 0.109E+03   0.237E+02 -.205E+03 -.109E+03   -.121E+01 0.511E+00 0.785E+00   0.227E-03 -.518E-03 0.239E-03
   -.155E+02 0.200E+02 -.169E+02   0.131E+02 -.218E+02 0.165E+02   0.246E+01 0.178E+01 0.396E+00   -.127E-03 -.820E-04 0.792E-04
   -.145E+03 -.196E+03 0.130E+02   0.149E+03 0.199E+03 -.136E+02   -.417E+01 -.314E+01 0.603E+00   0.897E-05 -.307E-03 0.149E-03
   0.987E+02 0.145E+03 -.889E+02   -.947E+02 -.144E+03 0.910E+02   -.406E+01 -.165E+01 -.216E+01   0.213E-03 -.959E-04 -.423E-03
   -.113E+02 -.195E+03 -.383E+02   0.716E+01 0.199E+03 0.430E+02   0.414E+01 -.425E+01 -.468E+01   0.334E-04 -.148E-03 -.406E-04
   0.905E+02 -.367E+03 0.958E+02   -.793E+02 0.416E+03 -.109E+03   -.112E+02 -.483E+02 0.131E+02   0.488E-03 0.175E-03 0.382E-03
   -.428E+03 0.146E+03 0.181E+02   0.477E+03 -.165E+03 -.231E+02   -.491E+02 0.190E+02 0.502E+01   -.184E-03 -.197E-03 -.837E-04
 -----------------------------------------------------------------------------------------------
   0.530E+02 0.283E+02 -.124E+02   0.000E+00 -.284E-13 -.320E-13   -.530E+02 -.283E+02 0.124E+02   0.140E-02 -.248E-02 0.439E-03
 
 
 POSITION                                       TOTAL-FORCE (eV/Angst)
 -----------------------------------------------------------------------------------
     11.19488     16.01365     14.99701        -0.005024     -0.003550      0.010900
     11.44579     14.34690     14.40641        -0.005735     -0.000677      0.004079
     11.44458     14.67532     16.15640         0.004367     -0.007438      0.004702
     13.46178     13.45349     15.59827        -0.000282     -0.001074      0.018891
     15.70005     13.53732     16.32128         0.000402     -0.007061     -0.003076
     16.66870     12.46806     14.31716         0.001412      0.009648     -0.009972
     15.37208     13.14818     13.29251        -0.003871      0.010150     -0.004475
     14.97463     11.95655     14.56202         0.003896      0.003294     -0.009238
     15.28933     16.58649     15.07388        -0.001368      0.000294     -0.025236
     18.14106     17.12986     15.72839        -0.002018     -0.007277      0.000930
     17.78867     17.24800     13.99211         0.008154      0.004496      0.002379
     16.90668     18.29400     15.14954         0.005988     -0.001887      0.000452
     11.73618     15.07897     15.17536        -0.003393     -0.003255      0.005526
     13.22758     15.36652     15.10675        -0.000443      0.010029     -0.008787
     15.45322     13.94316     15.32293        -0.000558      0.000599      0.000862
     15.62602     12.80702     14.30648         0.000879      0.006806     -0.006414
     16.57562     14.99735     15.12114        -0.005589      0.006512      0.011502
     17.33780     17.29663     14.99664         0.002702     -0.000607     -0.001682
     14.00897     14.28848     15.39546        -0.001231     -0.004142      0.008404
     16.28633     16.30911     15.15942         0.002880     -0.003214     -0.011491
     13.63170     16.50500     14.81152        -0.006999     -0.008040     -0.024094
     17.72836     14.54997     15.00939         0.005831     -0.003605      0.035839
 -----------------------------------------------------------------------------------
    total drift:                                0.000325      0.006400      0.003202


--------------------------------------------------------------------------------------------------------



  FREE ENERGIE OF THE ION-ELECTRON SYSTEM (eV)
  ---------------------------------------------------
  free  energy   TOTEN  =      -129.19614783 eV

  energy  without entropy=     -129.19614783  energy(sigma->0) =     -129.19614783
 
 d Force =-0.8445537E-04[-0.938E-04,-0.751E-04]  d Energy =-0.8402827E-04-0.427E-06
 d Force = 0.2197595E+00[ 0.221E+00, 0.219E+00]  d Ewald  = 0.2197595E+00-0.246E-07


--------------------------------------------------------------------------------------------------------


    POTLOK:  cpu time   20.8928: real time   20.8764


--------------------------------------------------------------------------------------------------------


 NEB: the previous image is higher in energy: F
 NEB: the next image is higher in energy    : F
 NEB: image is at an extrema
 NEB: diff energy (min, max):     0.054186    0.074765

 NEB: Tangent
 ----------------------------------------------
     -0.00444     -0.02107      0.03065
     -0.03700     -0.02305      0.03385
      0.04039     -0.01727      0.03443
     -0.00148      0.02067      0.37849
      0.02208     -0.16768     -0.02404
     -0.03106      0.10396     -0.17473
     -0.03902      0.26045     -0.07331
     -0.03298      0.09478     -0.23377
      0.00045     -0.03252     -0.20939
     -0.10443      0.09295      0.14342
      0.17015     -0.17647      0.09877
     -0.00507     -0.02502     -0.21574
     -0.00067     -0.02101      0.01985
      0.00115     -0.03383     -0.08574
     -0.00354     -0.01984      0.04231
     -0.02913      0.12028     -0.12404
      0.00787     -0.01439      0.17956
      0.01686     -0.03287      0.00473
     -0.00019     -0.00067      0.18096
      0.00301     -0.02146     -0.01725
      0.00671     -0.06879     -0.39488
      0.02032     -0.01711      0.40583

 NEB: forces: par spring, perp REAL, dneb     0.018201    0.043034    0.000000
 NEB: distance to prev, next image, angle between     1.288491    1.284851  142.089199
 NEB: projections on to tangent (spring, REAL)    -0.018201    0.054256

 stress matrix after NEB project (eV)
     -3.53366     -0.06516     -0.02306
     -0.06516     -3.56095     -0.14582
     -0.02306     -0.14582     -3.87366
  FORCES: max atom, RMS     0.027109    0.014764
  FORCE total and by dimension    0.069250    0.023862
  Stress total and by dimension    6.342278    3.873663
 OPT: skip step - force has converged


--------------------------------------------------------------------------------------------------------


  
 reached required accuracy - stopping structural energy minimisation
     LOOP+:  cpu time 1817.6417: real time 1817.2154
    4ORBIT:  cpu time    0.0000: real time    0.0000

 total amount of memory used by VASP on root node  4333713. kBytes
========================================================================

   base      :      30000. kBytes
   nonlr-proj:       2408. kBytes
   fftplans  :     924480. kBytes
   grid      :    2089440. kBytes
   one-center:         67. kBytes
   wavefun   :    1287318. kBytes
 
  
  
 General timing and accounting informations for this job:
 ========================================================
  
                  Total CPU time used (sec):   226690.938
                            User time (sec):   225249.933
                          System time (sec):     1441.007
                         Elapsed time (sec):   226579.189
  
                   Maximum memory used (kb):     5902684.
                   Average memory used (kb):           0.
  
                          Minor page faults:    320648121
                          Major page faults:            9
                 Voluntary context switches:        13709
