 vasp.5.4.1 24Jun15 (build Jan 13 2020 12:58:22) complex                        
  
 POSCAR found type information on POSCAR  H  C  N  O 
 08/POSCAR found :  4 types and      22 ions
 scaLAPACK will be used
 LDA part: xc-table for Pade appr. of Perdew
 POSCAR found type information on POSCAR  H  C  N  O 
 00/POSCAR found :  4 types and      22 ions
 POSCAR found type information on POSCAR  H  C  N  O 
 16/POSCAR found :  4 types and      22 ions
 Jacobian:    50.2178792621697     
 POSCAR, INCAR and KPOINTS ok, starting setup
 WARNING: small aliasing (wrap around) errors must be expected
 FFT: planning ...
 WAVECAR not read
 entering main loop
       N       E                     dE             d eps       ncg     rms          rms(c)
DAV:   1     0.609222569208E+03    0.60922E+03   -0.79577E+03   392   0.485E+02
DAV:   2     0.271896818399E+03   -0.33733E+03   -0.32637E+03   580   0.912E+01
DAV:   3    -0.461815747205E+02   -0.31808E+03   -0.31082E+03   504   0.111E+02
DAV:   4    -0.135739163492E+03   -0.89558E+02   -0.86634E+02   414   0.789E+01
DAV:   5    -0.141494747836E+03   -0.57556E+01   -0.57387E+01   416   0.221E+01    0.195E+01
DAV:   6    -0.131426741233E+03    0.10068E+02   -0.24354E+01   399   0.203E+01    0.992E+00
DAV:   7    -0.129685021594E+03    0.17417E+01   -0.44984E+00   432   0.832E+00    0.513E+00
DAV:   8    -0.129193656321E+03    0.49137E+00   -0.84630E-01   448   0.398E+00    0.149E+00
DAV:   9    -0.129126194394E+03    0.67462E-01   -0.95290E-02   448   0.149E+00    0.562E-01
DAV:  10    -0.129113579169E+03    0.12615E-01   -0.23365E-02   440   0.799E-01    0.254E-01
DAV:  11    -0.129107633818E+03    0.59454E-02   -0.76706E-03   464   0.434E-01    0.159E-01
DAV:  12    -0.129107428661E+03    0.20516E-03   -0.59076E-03   427   0.361E-01    0.982E-02
DAV:  13    -0.129113449835E+03   -0.60212E-02   -0.40291E-03   432   0.321E-01    0.577E-02
DAV:  14    -0.129120026427E+03   -0.65766E-02   -0.18157E-03   455   0.211E-01    0.384E-02
DAV:  15    -0.129128485673E+03   -0.84592E-02   -0.96196E-04   412   0.115E-01    0.232E-02
DAV:  16    -0.129134165198E+03   -0.56795E-02   -0.45088E-04   380   0.665E-02    0.133E-02
DAV:  17    -0.129136705397E+03   -0.25402E-02   -0.12260E-04   368   0.365E-02    0.823E-03
DAV:  18    -0.129138457308E+03   -0.17519E-02   -0.11887E-04   347   0.295E-02    0.541E-03
DAV:  19    -0.129139370019E+03   -0.91271E-03   -0.51630E-05   360   0.199E-02    0.305E-03
DAV:  20    -0.129139768282E+03   -0.39826E-03   -0.17282E-05   364   0.132E-02    0.191E-03
DAV:  21    -0.129139962696E+03   -0.19441E-03   -0.71301E-06   328   0.758E-03    0.123E-03
DAV:  22    -0.129140113240E+03   -0.15054E-03   -0.38167E-06   340   0.627E-03    0.820E-04
DAV:  23    -0.129140147744E+03   -0.34504E-04   -0.87700E-07   368   0.302E-03
   1 F= -.12914015E+03 E0= -.12914015E+03  d E =-.129140E+03
damped:  g(F)=  0.000E+00 g(S)=  0.000E+00 dE (1.order)= 0.000E+00
 bond charge predicted
       N       E                     dE             d eps       ncg     rms          rms(c)
DAV:   1    -0.129143339797E+03   -0.32266E-02   -0.95851E-02   340   0.160E+00    0.700E-02
DAV:   2    -0.129143487230E+03   -0.14743E-03   -0.22356E-03   464   0.221E-01    0.460E-02
DAV:   3    -0.129143478589E+03    0.86413E-05   -0.68590E-05   360   0.484E-02    0.255E-02
DAV:   4    -0.129143493577E+03   -0.14989E-04   -0.57231E-05   367   0.416E-02    0.494E-03
DAV:   5    -0.129143497337E+03   -0.37593E-05   -0.13306E-05   328   0.189E-02    0.338E-03
DAV:   6    -0.129143499624E+03   -0.22877E-05   -0.19801E-06   334   0.755E-03
   2 F= -.12914350E+03 E0= -.12914350E+03  d E =-.335188E-02
damped:  g(F)=  0.000E+00 g(S)=  0.000E+00 dE (1.order)= 0.000E+00
 bond charge predicted
       N       E                     dE             d eps       ncg     rms          rms(c)
DAV:   1    -0.129146212180E+03   -0.27148E-02   -0.25354E-01   336   0.256E+00    0.109E-01
DAV:   2    -0.129146597608E+03   -0.38543E-03   -0.57045E-03   386   0.340E-01    0.669E-02
DAV:   3    -0.129146591599E+03    0.60090E-05   -0.13358E-04   368   0.673E-02    0.376E-02
DAV:   4    -0.129146624949E+03   -0.33351E-04   -0.11825E-04   280   0.603E-02    0.680E-03
DAV:   5    -0.129146627407E+03   -0.24577E-05   -0.26784E-05   304   0.270E-02    0.485E-03
DAV:   6    -0.129146627959E+03   -0.55217E-06   -0.39867E-06   264   0.107E-02
   3 F= -.12914663E+03 E0= -.12914663E+03  d E =-.312833E-02
damped:  g(F)=  0.000E+00 g(S)=  0.000E+00 dE (1.order)= 0.000E+00
 bond charge predicted
       N       E                     dE             d eps       ncg     rms          rms(c)
DAV:   1    -0.129149592749E+03   -0.29653E-02   -0.37660E-01   334   0.305E+00    0.127E-01
DAV:   2    -0.129150182618E+03   -0.58987E-03   -0.82090E-03   404   0.389E-01    0.710E-02
DAV:   3    -0.129150213537E+03   -0.30919E-04   -0.17163E-04   358   0.677E-02    0.410E-02
DAV:   4    -0.129150287098E+03   -0.73561E-04   -0.13527E-04   323   0.630E-02    0.854E-03
DAV:   5    -0.129150289615E+03   -0.25173E-05   -0.27969E-05   272   0.283E-02    0.616E-03
DAV:   6    -0.129150290744E+03   -0.11290E-05   -0.47537E-06   228   0.117E-02
   4 F= -.12915029E+03 E0= -.12915029E+03  d E =-.366278E-02
damped:  g(F)=  0.000E+00 g(S)=  0.000E+00 dE (1.order)= 0.000E+00
 bond charge predicted
       N       E                     dE             d eps       ncg     rms          rms(c)
DAV:   1    -0.129153817536E+03   -0.35279E-02   -0.53969E-01   328   0.373E+00    0.153E-01
DAV:   2    -0.129154682931E+03   -0.86539E-03   -0.11898E-02   420   0.486E-01    0.877E-02
DAV:   3    -0.129154709398E+03   -0.26467E-04   -0.28630E-04   400   0.888E-02    0.509E-02
DAV:   4    -0.129154807675E+03   -0.98277E-04   -0.20066E-04   344   0.774E-02    0.115E-02
DAV:   5    -0.129154811913E+03   -0.42377E-05   -0.39748E-05   272   0.346E-02    0.760E-03
DAV:   6    -0.129154813816E+03   -0.19034E-05   -0.79302E-06   320   0.144E-02
   5 F= -.12915481E+03 E0= -.12915481E+03  d E =-.452307E-02
damped:  g(F)=  0.000E+00 g(S)=  0.000E+00 dE (1.order)= 0.000E+00
 bond charge predicted
       N       E                     dE             d eps       ncg     rms          rms(c)
DAV:   1    -0.129156719767E+03   -0.19079E-02   -0.61326E-01   328   0.402E+00    0.166E-01
DAV:   2    -0.129157724666E+03   -0.10049E-02   -0.13395E-02   422   0.522E-01    0.964E-02
DAV:   3    -0.129157751392E+03   -0.26725E-04   -0.34760E-04   366   0.950E-02    0.548E-02
DAV:   4    -0.129157854354E+03   -0.10296E-03   -0.20577E-04   338   0.783E-02    0.111E-02
DAV:   5    -0.129157860702E+03   -0.63475E-05   -0.42983E-05   272   0.356E-02    0.745E-03
DAV:   6    -0.129157863265E+03   -0.25635E-05   -0.64827E-06   220   0.137E-02
   6 F= -.12915786E+03 E0= -.12915786E+03  d E =-.304945E-02
damped:  g(F)=  0.000E+00 g(S)=  0.000E+00 dE (1.order)= 0.000E+00
 bond charge predicted
       N       E                     dE             d eps       ncg     rms          rms(c)
DAV:   1    -0.129159201076E+03   -0.13404E-02   -0.53246E-01   328   0.374E+00    0.157E-01
DAV:   2    -0.129160086777E+03   -0.88570E-03   -0.11621E-02   396   0.480E-01    0.911E-02
DAV:   3    -0.129160117666E+03   -0.30889E-04   -0.29976E-04   359   0.859E-02    0.516E-02
DAV:   4    -0.129160205450E+03   -0.87784E-04   -0.19180E-04   332   0.722E-02    0.108E-02
DAV:   5    -0.129160208751E+03   -0.33015E-05   -0.38298E-05   336   0.333E-02    0.694E-03
DAV:   6    -0.129160211146E+03   -0.23954E-05   -0.55209E-06   296   0.127E-02
   7 F= -.12916021E+03 E0= -.12916021E+03  d E =-.234788E-02
damped:  g(F)=  0.000E+00 g(S)=  0.000E+00 dE (1.order)= 0.000E+00
 bond charge predicted
       N       E                     dE             d eps       ncg     rms          rms(c)
DAV:   1    -0.129161065977E+03   -0.85723E-03   -0.57375E-01   328   0.389E+00    0.165E-01
DAV:   2    -0.129161957840E+03   -0.89186E-03   -0.12165E-02   364   0.502E-01    0.100E-01
DAV:   3    -0.129161970189E+03   -0.12349E-04   -0.34298E-04   348   0.978E-02    0.566E-02
DAV:   4    -0.129162047774E+03   -0.77585E-04   -0.24495E-04   365   0.824E-02    0.119E-02
DAV:   5    -0.129162048664E+03   -0.88919E-06   -0.46227E-05   360   0.358E-02    0.750E-03
DAV:   6    -0.129162050471E+03   -0.18072E-05   -0.64648E-06   270   0.137E-02
   8 F= -.12916205E+03 E0= -.12916205E+03  d E =-.183932E-02
damped:  g(F)=  0.000E+00 g(S)=  0.000E+00 dE (1.order)= 0.000E+00
 bond charge predicted
       N       E                     dE             d eps       ncg     rms          rms(c)
DAV:   1    -0.129162567190E+03   -0.51853E-03   -0.59637E-01   328   0.395E+00    0.162E-01
DAV:   2    -0.129163477785E+03   -0.91060E-03   -0.12005E-02   388   0.498E-01    0.104E-01
DAV:   3    -0.129163469563E+03    0.82221E-05   -0.33125E-04   341   0.978E-02    0.585E-02
DAV:   4    -0.129163558546E+03   -0.88983E-04   -0.22657E-04   339   0.852E-02    0.111E-02
DAV:   5    -0.129163561431E+03   -0.28841E-05   -0.48650E-05   272   0.381E-02    0.773E-03
DAV:   6    -0.129163563292E+03   -0.18609E-05   -0.74803E-06   236   0.152E-02
   9 F= -.12916356E+03 E0= -.12916356E+03  d E =-.151282E-02
damped:  g(F)=  0.000E+00 g(S)=  0.000E+00 dE (1.order)= 0.000E+00
 bond charge predicted
       N       E                     dE             d eps       ncg     rms          rms(c)
DAV:   1    -0.129164909719E+03   -0.13483E-02   -0.76099E-01   330   0.451E+00    0.179E-01
DAV:   2    -0.129166139318E+03   -0.12296E-02   -0.15762E-02   388   0.570E-01    0.122E-01
DAV:   3    -0.129166078932E+03    0.60386E-04   -0.47314E-04   406   0.116E-01    0.706E-02
DAV:   4    -0.129166196356E+03   -0.11742E-03   -0.33994E-04   380   0.105E-01    0.170E-02
DAV:   5    -0.129166195515E+03    0.84103E-06   -0.66794E-05   296   0.457E-02    0.106E-02
DAV:   6    -0.129166197873E+03   -0.23583E-05   -0.12487E-05   272   0.186E-02
  10 F= -.12916620E+03 E0= -.12916620E+03  d E =-.263458E-02
damped:  g(F)=  0.000E+00 g(S)=  0.000E+00 dE (1.order)= 0.000E+00
 bond charge predicted
       N       E                     dE             d eps       ncg     rms          rms(c)
DAV:   1    -0.129167399183E+03   -0.12037E-02   -0.11647E+00   329   0.560E+00    0.225E-01
DAV:   2    -0.129169432422E+03   -0.20332E-02   -0.26736E-02   364   0.743E-01    0.151E-01
DAV:   3    -0.129169296451E+03    0.13597E-03   -0.83656E-04   452   0.156E-01    0.915E-02
DAV:   4    -0.129169488670E+03   -0.19222E-03   -0.67101E-04   420   0.145E-01    0.271E-02
DAV:   5    -0.129169484078E+03    0.45926E-05   -0.14476E-04   304   0.668E-02    0.153E-02
DAV:   6    -0.129169487705E+03   -0.36270E-05   -0.27895E-05   336   0.265E-02
  11 F= -.12916949E+03 E0= -.12916949E+03  d E =-.328983E-02
damped:  g(F)=  0.000E+00 g(S)=  0.000E+00 dE (1.order)= 0.000E+00
 bond charge predicted
       N       E                     dE             d eps       ncg     rms          rms(c)
DAV:   1    -0.129170869419E+03   -0.13853E-02   -0.17530E+00   330   0.690E+00    0.273E-01
DAV:   2    -0.129173913749E+03   -0.30443E-02   -0.40142E-02   364   0.911E-01    0.184E-01
DAV:   3    -0.129173716830E+03    0.19692E-03   -0.12577E-03   428   0.187E-01    0.112E-01
DAV:   4    -0.129173996240E+03   -0.27941E-03   -0.86892E-04   420   0.164E-01    0.311E-02
DAV:   5    -0.129173995318E+03    0.92227E-06   -0.19637E-04   400   0.758E-02    0.157E-02
DAV:   6    -0.129174000540E+03   -0.52220E-05   -0.21226E-05   264   0.233E-02
  12 F= -.12917400E+03 E0= -.12917400E+03  d E =-.451284E-02
damped:  g(F)=  0.000E+00 g(S)=  0.000E+00 dE (1.order)= 0.000E+00
 bond charge predicted
       N       E                     dE             d eps       ncg     rms          rms(c)
DAV:   1    -0.129173645285E+03    0.35003E-03   -0.23572E+00   330   0.798E+00    0.323E-01
DAV:   2    -0.129178054639E+03   -0.44094E-02   -0.56707E-02   364   0.107E+00    0.206E-01
DAV:   3    -0.129177888489E+03    0.16615E-03   -0.17451E-03   419   0.209E-01    0.122E-01
DAV:   4    -0.129178275556E+03   -0.38707E-03   -0.94516E-04   420   0.169E-01    0.354E-02
DAV:   5    -0.129178280379E+03   -0.48228E-05   -0.21460E-04   400   0.790E-02    0.178E-02
DAV:   6    -0.129178286595E+03   -0.62165E-05   -0.28004E-05   272   0.266E-02
  13 F= -.12917829E+03 E0= -.12917829E+03  d E =-.428606E-02
damped:  g(F)=  0.000E+00 g(S)=  0.000E+00 dE (1.order)= 0.000E+00
 bond charge predicted
       N       E                     dE             d eps       ncg     rms          rms(c)
DAV:   1    -0.129173668804E+03    0.46116E-02   -0.36823E+00   330   0.100E+01    0.391E-01
DAV:   2    -0.129180662748E+03   -0.69939E-02   -0.91164E-02   329   0.137E+00    0.262E-01
DAV:   3    -0.129180316184E+03    0.34656E-03   -0.28718E-03   464   0.278E-01    0.163E-01
DAV:   4    -0.129180735147E+03   -0.41896E-03   -0.19770E-03   439   0.248E-01    0.465E-02
DAV:   5    -0.129180735832E+03   -0.68473E-06   -0.42802E-04   400   0.111E-01    0.248E-02
DAV:   6    -0.129180748219E+03   -0.12387E-04   -0.49900E-05   304   0.352E-02
  14 F= -.12918075E+03 E0= -.12918075E+03  d E =-.246162E-02
damped:  g(F)=  0.000E+00 g(S)=  0.000E+00 dE (1.order)= 0.000E+00
 bond charge predicted
       N       E                     dE             d eps       ncg     rms          rms(c)
DAV:   1    -0.129182338866E+03   -0.16030E-02   -0.13711E-01   336   0.196E+00    0.113E-01
DAV:   2    -0.129182760409E+03   -0.42154E-03   -0.62495E-03   370   0.360E-01    0.755E-02
DAV:   3    -0.129182698980E+03    0.61429E-04   -0.19734E-04   431   0.782E-02    0.471E-02
DAV:   4    -0.129182674207E+03    0.24772E-04   -0.15095E-04   328   0.665E-02    0.104E-02
DAV:   5    -0.129182676409E+03   -0.22011E-05   -0.34055E-05   368   0.302E-02    0.636E-03
DAV:   6    -0.129182679705E+03   -0.32966E-05   -0.45646E-06   368   0.113E-02
  15 F= -.12918268E+03 E0= -.12918268E+03  d E =-.193149E-02
damped:  g(F)=  0.000E+00 g(S)=  0.000E+00 dE (1.order)= 0.000E+00
 bond charge predicted
       N       E                     dE             d eps       ncg     rms          rms(c)
DAV:   1    -0.129181980421E+03    0.69599E-03   -0.12076E-01   334   0.188E+00    0.875E-02
DAV:   2    -0.129182264772E+03   -0.28435E-03   -0.42774E-03   430   0.304E-01    0.614E-02
DAV:   3    -0.129182216995E+03    0.47777E-04   -0.12166E-04   400   0.629E-02    0.401E-02
DAV:   4    -0.129182196523E+03    0.20472E-04   -0.13458E-04   298   0.659E-02    0.932E-03
DAV:   5    -0.129182198739E+03   -0.22153E-05   -0.35035E-05   368   0.317E-02    0.591E-03
DAV:   6    -0.129182201788E+03   -0.30499E-05   -0.45622E-06   272   0.114E-02
  16 F= -.12918220E+03 E0= -.12918220E+03  d E =0.477917E-03
damped:  g(F)=  0.000E+00 g(S)=  0.000E+00 dE (1.order)= 0.000E+00
 bond charge predicted
       N       E                     dE             d eps       ncg     rms          rms(c)
DAV:   1    -0.129182829478E+03   -0.63074E-03   -0.71469E-03   395   0.443E-01    0.268E-02
DAV:   2    -0.129182859215E+03   -0.29737E-04   -0.32494E-04   423   0.816E-02    0.165E-02
DAV:   3    -0.129182861690E+03   -0.24752E-05   -0.11439E-05   220   0.193E-02    0.101E-02
DAV:   4    -0.129182869809E+03   -0.81192E-05   -0.10186E-05   323   0.165E-02    0.236E-03
DAV:   5    -0.129182873164E+03   -0.33549E-05   -0.23946E-06   304   0.798E-03    0.123E-03
DAV:   6    -0.129182875033E+03   -0.18695E-05   -0.38398E-07   208   0.314E-03
  17 F= -.12918288E+03 E0= -.12918288E+03  d E =-.673245E-03
damped:  g(F)=  0.000E+00 g(S)=  0.000E+00 dE (1.order)= 0.000E+00
 bond charge predicted
       N       E                     dE             d eps       ncg     rms          rms(c)
DAV:   1    -0.129183491755E+03   -0.61859E-03   -0.21415E-02   363   0.770E-01    0.454E-02
DAV:   2    -0.129183557843E+03   -0.66088E-04   -0.99912E-04   411   0.143E-01    0.288E-02
DAV:   3    -0.129183546905E+03    0.10938E-04   -0.26789E-05   368   0.300E-02    0.177E-02
DAV:   4    -0.129183541156E+03    0.57496E-05   -0.27854E-05   304   0.284E-02    0.376E-03
DAV:   5    -0.129183541140E+03    0.15896E-07   -0.66205E-06   336   0.132E-02    0.231E-03
DAV:   6    -0.129183541514E+03   -0.37404E-06   -0.98995E-07   304   0.526E-03
  18 F= -.12918354E+03 E0= -.12918354E+03  d E =-.666480E-03
damped:  g(F)=  0.000E+00 g(S)=  0.000E+00 dE (1.order)= 0.000E+00
 bond charge predicted
       N       E                     dE             d eps       ncg     rms          rms(c)
DAV:   1    -0.129183641781E+03   -0.10064E-03   -0.27540E-02   375   0.883E-01    0.487E-02
DAV:   2    -0.129183718174E+03   -0.76393E-04   -0.12186E-03   432   0.159E-01    0.315E-02
DAV:   3    -0.129183702447E+03    0.15726E-04   -0.30775E-05   272   0.329E-02    0.197E-02
DAV:   4    -0.129183693487E+03    0.89607E-05   -0.42528E-05   336   0.344E-02    0.497E-03
DAV:   5    -0.129183693527E+03   -0.39819E-07   -0.10226E-05   304   0.168E-02    0.278E-03
DAV:   6    -0.129183694268E+03   -0.74141E-06   -0.14041E-06   272   0.630E-03
  19 F= -.12918369E+03 E0= -.12918369E+03  d E =-.152754E-03
damped:  g(F)=  0.000E+00 g(S)=  0.000E+00 dE (1.order)= 0.000E+00
 bond charge predicted
       N       E                     dE             d eps       ncg     rms          rms(c)
DAV:   1    -0.129183729540E+03   -0.36013E-04   -0.69601E-05   332   0.445E-02    0.252E-03
DAV:   2    -0.129183731622E+03   -0.20815E-05   -0.39709E-06   272   0.109E-02    0.164E-03
DAV:   3    -0.129183733373E+03   -0.17515E-05   -0.46646E-07   204   0.362E-03    0.107E-03
DAV:   4    -0.129183736319E+03   -0.29462E-05   -0.19965E-07   301   0.220E-03    0.376E-04
DAV:   5    -0.129183737825E+03   -0.15053E-05   -0.41701E-08   272   0.108E-03    0.213E-04
DAV:   6    -0.129183739300E+03   -0.14755E-05   -0.22375E-08   232   0.721E-04
  20 F= -.12918374E+03 E0= -.12918374E+03  d E =-.450321E-04
damped:  g(F)=  0.000E+00 g(S)=  0.000E+00 dE (1.order)= 0.000E+00
 bond charge predicted
       N       E                     dE             d eps       ncg     rms          rms(c)
DAV:   1    -0.129183800295E+03   -0.62470E-04   -0.26543E-04   332   0.871E-02    0.437E-03
DAV:   2    -0.129183801775E+03   -0.14803E-05   -0.13213E-05   272   0.193E-02    0.280E-03
DAV:   3    -0.129183802299E+03   -0.52452E-06   -0.13484E-06   204   0.619E-03    0.198E-03
DAV:   4    -0.129183803166E+03   -0.86612E-06   -0.45322E-07   301   0.381E-03    0.689E-04
DAV:   5    -0.129183803528E+03   -0.36232E-06   -0.76605E-08   272   0.172E-03    0.351E-04
DAV:   6    -0.129183803900E+03   -0.37219E-06   -0.16593E-08   202   0.101E-03
  21 F= -.12918380E+03 E0= -.12918380E+03  d E =-.645999E-04
damped:  g(F)=  0.000E+00 g(S)=  0.000E+00 dE (1.order)= 0.000E+00
 bond charge predicted
       N       E                     dE             d eps       ncg     rms          rms(c)
DAV:   1    -0.129183879487E+03   -0.75959E-04   -0.54518E-04   374   0.125E-01    0.687E-03
DAV:   2    -0.129183880721E+03   -0.12343E-05   -0.20437E-05   226   0.221E-02    0.416E-03
DAV:   3    -0.129183880757E+03   -0.35906E-07   -0.22986E-06   272   0.769E-03    0.249E-03
DAV:   4    -0.129183880780E+03   -0.23071E-07   -0.83847E-07   272   0.446E-03    0.868E-04
DAV:   5    -0.129183880803E+03   -0.23040E-07   -0.13551E-07   272   0.223E-03    0.381E-04
DAV:   6    -0.129183880884E+03   -0.80716E-07   -0.28397E-08   238   0.118E-03
  22 F= -.12918388E+03 E0= -.12918388E+03  d E =-.769836E-04
damped:  g(F)=  0.000E+00 g(S)=  0.000E+00 dE (1.order)= 0.000E+00
 bond charge predicted
       N       E                     dE             d eps       ncg     rms          rms(c)
DAV:   1    -0.129183960478E+03   -0.79675E-04   -0.83808E-04   384   0.155E-01    0.819E-03
DAV:   2    -0.129183961929E+03   -0.14502E-05   -0.30205E-05   229   0.269E-02    0.503E-03
DAV:   3    -0.129183961705E+03    0.22336E-06   -0.33796E-06   272   0.933E-03    0.303E-03
DAV:   4    -0.129183961428E+03    0.27718E-06   -0.10272E-06   236   0.541E-03    0.964E-04
DAV:   5    -0.129183961399E+03    0.28905E-07   -0.27415E-07   240   0.285E-03    0.417E-04
DAV:   6    -0.129183961492E+03   -0.92898E-07   -0.67975E-08   230   0.149E-03
  23 F= -.12918396E+03 E0= -.12918396E+03  d E =-.806083E-04
damped:  g(F)=  0.000E+00 g(S)=  0.000E+00 dE (1.order)= 0.000E+00
 bond charge predicted
       N       E                     dE             d eps       ncg     rms          rms(c)
DAV:   1    -0.129184038267E+03   -0.76868E-04   -0.10872E-03   351   0.176E-01    0.879E-03
DAV:   2    -0.129184040226E+03   -0.19592E-05   -0.36805E-05   213   0.297E-02    0.549E-03
DAV:   3    -0.129184040039E+03    0.18722E-06   -0.41187E-06   232   0.103E-02    0.336E-03
DAV:   4    -0.129184039806E+03    0.23325E-06   -0.12617E-06   218   0.596E-03    0.106E-03
DAV:   5    -0.129184039818E+03   -0.12664E-07   -0.35041E-07   168   0.314E-03    0.457E-04
DAV:   6    -0.129184039955E+03   -0.13620E-06   -0.98407E-08   212   0.165E-03
  24 F= -.12918404E+03 E0= -.12918404E+03  d E =-.784626E-04
damped:  g(F)=  0.000E+00 g(S)=  0.000E+00 dE (1.order)= 0.000E+00
 bond charge predicted
       N       E                     dE             d eps       ncg     rms          rms(c)
DAV:   1    -0.129184113308E+03   -0.73490E-04   -0.12561E-03   355   0.188E-01    0.859E-03
DAV:   2    -0.129184115518E+03   -0.22103E-05   -0.37999E-05   228   0.302E-02    0.547E-03
DAV:   3    -0.129184115439E+03    0.79179E-07   -0.42156E-06   164   0.104E-02    0.339E-03
DAV:   4    -0.129184115346E+03    0.92980E-07   -0.12832E-06   164   0.601E-03    0.105E-03
DAV:   5    -0.129184115411E+03   -0.64718E-07   -0.36746E-07   164   0.315E-03    0.457E-04
DAV:   6    -0.129184115574E+03   -0.16252E-06   -0.11042E-07   177   0.168E-03
  25 F= -.12918412E+03 E0= -.12918412E+03  d E =-.756190E-04
damped:  g(F)=  0.000E+00 g(S)=  0.000E+00 dE (1.order)= 0.000E+00
 bond charge predicted
       N       E                     dE             d eps       ncg     rms          rms(c)
DAV:   1    -0.129184200226E+03   -0.84815E-04   -0.16927E-03   332   0.215E-01    0.873E-03
DAV:   2    -0.129184203038E+03   -0.28113E-05   -0.43446E-05   202   0.318E-02    0.563E-03
DAV:   3    -0.129184203110E+03   -0.72331E-07   -0.47108E-06   164   0.109E-02    0.354E-03
DAV:   4    -0.129184203215E+03   -0.10494E-06   -0.13930E-06   164   0.624E-03    0.105E-03
DAV:   5    -0.129184203318E+03   -0.10354E-06   -0.42062E-07   164   0.324E-03    0.467E-04
DAV:   6    -0.129184203483E+03   -0.16495E-06   -0.13642E-07   165   0.174E-03
  26 F= -.12918420E+03 E0= -.12918420E+03  d E =-.879098E-04
damped:  g(F)=  0.000E+00 g(S)=  0.000E+00 dE (1.order)= 0.000E+00
 bond charge predicted
       N       E                     dE             d eps       ncg     rms          rms(c)
DAV:   1    -0.129184314234E+03   -0.11092E-03   -0.23550E-03   332   0.247E-01    0.913E-03
DAV:   2    -0.129184318094E+03   -0.38594E-05   -0.52897E-05   232   0.335E-02    0.588E-03
DAV:   3    -0.129184318232E+03   -0.13838E-06   -0.38454E-06   164   0.901E-03    0.376E-03
DAV:   4    -0.129184318678E+03   -0.44631E-06   -0.15709E-06   200   0.649E-03    0.906E-04
DAV:   5    -0.129184318807E+03   -0.12869E-06   -0.50293E-07   164   0.326E-03    0.547E-04
DAV:   6    -0.129184318954E+03   -0.14754E-06   -0.16712E-07   201   0.170E-03
  27 F= -.12918432E+03 E0= -.12918432E+03  d E =-.115471E-03
damped:  g(F)=  0.000E+00 g(S)=  0.000E+00 dE (1.order)= 0.000E+00
 bond charge predicted
       N       E                     dE             d eps       ncg     rms          rms(c)
DAV:   1    -0.129184471485E+03   -0.15268E-03   -0.35548E-03   331   0.299E-01    0.108E-02
DAV:   2    -0.129184477255E+03   -0.57698E-05   -0.74492E-05   277   0.387E-02    0.665E-03
DAV:   3    -0.129184477622E+03   -0.36721E-06   -0.52127E-06   219   0.102E-02    0.409E-03
DAV:   4    -0.129184478443E+03   -0.82168E-06   -0.19531E-06   245   0.688E-03    0.841E-04
DAV:   5    -0.129184478624E+03   -0.18074E-06   -0.68396E-07   221   0.347E-03    0.545E-04
DAV:   6    -0.129184478747E+03   -0.12321E-06   -0.22016E-07   227   0.164E-03
  28 F= -.12918448E+03 E0= -.12918448E+03  d E =-.159793E-03
damped:  g(F)=  0.000E+00 g(S)=  0.000E+00 dE (1.order)= 0.000E+00
 bond charge predicted
       N       E                     dE             d eps       ncg     rms          rms(c)
DAV:   1    -0.129184677804E+03   -0.19918E-03   -0.57210E-03   331   0.382E-01    0.139E-02
DAV:   2    -0.129184688302E+03   -0.10498E-04   -0.13346E-04   365   0.507E-02    0.868E-03
DAV:   3    -0.129184688099E+03    0.20309E-06   -0.44127E-06   264   0.110E-02    0.528E-03
DAV:   4    -0.129184688862E+03   -0.76251E-06   -0.24318E-06   202   0.859E-03    0.106E-03
DAV:   5    -0.129184689012E+03   -0.15026E-06   -0.62113E-07   272   0.400E-03    0.589E-04
DAV:   6    -0.129184689082E+03   -0.69918E-07   -0.96203E-08   192   0.156E-03
  29 F= -.12918469E+03 E0= -.12918469E+03  d E =-.210335E-03
damped:  g(F)=  0.000E+00 g(S)=  0.000E+00 dE (1.order)= 0.000E+00
 bond charge predicted
       N       E                     dE             d eps       ncg     rms          rms(c)
DAV:   1    -0.129184921473E+03   -0.23246E-03   -0.92380E-03   336   0.489E-01    0.182E-02
DAV:   2    -0.129184938449E+03   -0.16976E-04   -0.22312E-04   268   0.669E-02    0.115E-02
DAV:   3    -0.129184937977E+03    0.47214E-06   -0.90054E-06   272   0.157E-02    0.705E-03
DAV:   4    -0.129184938786E+03   -0.80932E-06   -0.47499E-06   200   0.123E-02    0.134E-03
DAV:   5    -0.129184938976E+03   -0.18966E-06   -0.13836E-06   272   0.566E-03    0.962E-04
DAV:   6    -0.129184939123E+03   -0.14750E-06   -0.30402E-07   208   0.241E-03
  30 F= -.12918494E+03 E0= -.12918494E+03  d E =-.250041E-03
damped:  g(F)=  0.000E+00 g(S)=  0.000E+00 dE (1.order)= 0.000E+00
 bond charge predicted
       N       E                     dE             d eps       ncg     rms          rms(c)
DAV:   1    -0.129185186570E+03   -0.24759E-03   -0.14120E-02   336   0.604E-01    0.223E-02
DAV:   2    -0.129185212854E+03   -0.26285E-04   -0.34131E-04   268   0.824E-02    0.142E-02
DAV:   3    -0.129185212177E+03    0.67748E-06   -0.13736E-05   256   0.193E-02    0.872E-03
DAV:   4    -0.129185213500E+03   -0.13237E-05   -0.72314E-06   226   0.151E-02    0.164E-03
DAV:   5    -0.129185213819E+03   -0.31829E-06   -0.21396E-06   205   0.697E-03    0.120E-03
DAV:   6    -0.129185214070E+03   -0.25142E-06   -0.48904E-07   234   0.298E-03
  31 F= -.12918521E+03 E0= -.12918521E+03  d E =-.274947E-03
damped:  g(F)=  0.000E+00 g(S)=  0.000E+00 dE (1.order)= 0.000E+00
 bond charge predicted
       N       E                     dE             d eps       ncg     rms          rms(c)
DAV:   1    -0.129185489575E+03   -0.27576E-03   -0.20173E-02   334   0.714E-01    0.257E-02
DAV:   2    -0.129185526196E+03   -0.36621E-04   -0.46246E-04   267   0.943E-02    0.165E-02
DAV:   3    -0.129185525723E+03    0.47331E-06   -0.18301E-05   203   0.218E-02    0.101E-02
DAV:   4    -0.129185528350E+03   -0.26269E-05   -0.91201E-06   243   0.168E-02    0.184E-03
DAV:   5    -0.129185528852E+03   -0.50256E-06   -0.28241E-06   202   0.777E-03    0.138E-03
DAV:   6    -0.129185529202E+03   -0.34976E-06   -0.67448E-07   203   0.330E-03
  32 F= -.12918553E+03 E0= -.12918553E+03  d E =-.315132E-03
damped:  g(F)=  0.000E+00 g(S)=  0.000E+00 dE (1.order)= 0.000E+00
 bond charge predicted
       N       E                     dE             d eps       ncg     rms          rms(c)
DAV:   1    -0.129185867077E+03   -0.33822E-03   -0.28879E-02   332   0.850E-01    0.302E-02
DAV:   2    -0.129185921347E+03   -0.54270E-04   -0.66873E-04   346   0.110E-01    0.206E-02
DAV:   3    -0.129185918577E+03    0.27699E-05   -0.12011E-05   271   0.186E-02    0.129E-02
DAV:   4    -0.129185923326E+03   -0.47492E-05   -0.15007E-05   266   0.196E-02    0.285E-03
DAV:   5    -0.129185923715E+03   -0.38878E-06   -0.27041E-06   272   0.868E-03    0.185E-03
DAV:   6    -0.129185923980E+03   -0.26559E-06   -0.37298E-07   202   0.309E-03
  33 F= -.12918592E+03 E0= -.12918592E+03  d E =-.394778E-03
damped:  g(F)=  0.000E+00 g(S)=  0.000E+00 dE (1.order)= 0.000E+00
 bond charge predicted
       N       E                     dE             d eps       ncg     rms          rms(c)
DAV:   1    -0.129186309068E+03   -0.38535E-03   -0.43556E-02   335   0.105E+00    0.372E-02
DAV:   2    -0.129186393013E+03   -0.83945E-04   -0.10391E-03   363   0.139E-01    0.263E-02
DAV:   3    -0.129186387646E+03    0.53675E-05   -0.18652E-05   272   0.237E-02    0.168E-02
DAV:   4    -0.129186393577E+03   -0.59311E-05   -0.24998E-05   272   0.260E-02    0.389E-03
DAV:   5    -0.129186393882E+03   -0.30465E-06   -0.47168E-06   272   0.117E-02    0.235E-03
DAV:   6    -0.129186394163E+03   -0.28134E-06   -0.72086E-07   224   0.434E-03
  34 F= -.12918639E+03 E0= -.12918639E+03  d E =-.470182E-03
damped:  g(F)=  0.000E+00 g(S)=  0.000E+00 dE (1.order)= 0.000E+00
 bond charge predicted
       N       E                     dE             d eps       ncg     rms          rms(c)
DAV:   1    -0.129186782755E+03   -0.38887E-03   -0.66272E-02   336   0.129E+00    0.455E-02
DAV:   2    -0.129186912012E+03   -0.12926E-03   -0.15856E-03   365   0.171E-01    0.321E-02
DAV:   3    -0.129186904495E+03    0.75164E-05   -0.34092E-05   320   0.286E-02    0.204E-02
DAV:   4    -0.129186911664E+03   -0.71687E-05   -0.23077E-05   219   0.291E-02    0.339E-03
DAV:   5    -0.129186912744E+03   -0.10797E-05   -0.68550E-06   272   0.131E-02    0.252E-03
DAV:   6    -0.129186913325E+03   -0.58188E-06   -0.91195E-07   208   0.482E-03
  35 F= -.12918691E+03 E0= -.12918691E+03  d E =-.519163E-03
damped:  g(F)=  0.000E+00 g(S)=  0.000E+00 dE (1.order)= 0.000E+00
 bond charge predicted
       N       E                     dE             d eps       ncg     rms          rms(c)
DAV:   1    -0.129187342041E+03   -0.42930E-03   -0.98871E-02   331   0.157E+00    0.543E-02
DAV:   2    -0.129187535959E+03   -0.19392E-03   -0.23246E-03   354   0.205E-01    0.378E-02
DAV:   3    -0.129187526376E+03    0.95832E-05   -0.47398E-05   335   0.326E-02    0.237E-02
DAV:   4    -0.129187538462E+03   -0.12086E-04   -0.33610E-05   291   0.340E-02    0.371E-03
DAV:   5    -0.129187539933E+03   -0.14708E-05   -0.82877E-06   272   0.146E-02    0.296E-03
DAV:   6    -0.129187540734E+03   -0.80096E-06   -0.86658E-07   204   0.484E-03
  36 F= -.12918754E+03 E0= -.12918754E+03  d E =-.627409E-03
damped:  g(F)=  0.000E+00 g(S)=  0.000E+00 dE (1.order)= 0.000E+00
 bond charge predicted
       N       E                     dE             d eps       ncg     rms          rms(c)
DAV:   1    -0.129187990727E+03   -0.45079E-03   -0.14637E-01   331   0.191E+00    0.660E-02
DAV:   2    -0.129188284164E+03   -0.29344E-03   -0.35060E-03   354   0.253E-01    0.461E-02
DAV:   3    -0.129188269040E+03    0.15124E-04   -0.70650E-05   360   0.400E-02    0.289E-02
DAV:   4    -0.129188284639E+03   -0.15599E-04   -0.51531E-05   281   0.422E-02    0.435E-03
DAV:   5    -0.129188286804E+03   -0.21652E-05   -0.12656E-05   272   0.179E-02    0.366E-03
DAV:   6    -0.129188287937E+03   -0.11331E-05   -0.13487E-06   296   0.587E-03
  37 F= -.12918829E+03 E0= -.12918829E+03  d E =-.747203E-03
damped:  g(F)=  0.000E+00 g(S)=  0.000E+00 dE (1.order)= 0.000E+00
 bond charge predicted
       N       E                     dE             d eps       ncg     rms          rms(c)
DAV:   1    -0.129188719509E+03   -0.43271E-03   -0.20634E-01   333   0.225E+00    0.777E-02
DAV:   2    -0.129189134048E+03   -0.41454E-03   -0.49095E-03   364   0.297E-01    0.544E-02
DAV:   3    -0.129189112649E+03    0.21399E-04   -0.97017E-05   336   0.463E-02    0.342E-02
DAV:   4    -0.129189135065E+03   -0.22416E-04   -0.69677E-05   289   0.491E-02    0.504E-03
DAV:   5    -0.129189138011E+03   -0.29461E-05   -0.17389E-05   264   0.208E-02    0.435E-03
DAV:   6    -0.129189139618E+03   -0.16073E-05   -0.17247E-06   236   0.689E-03
  38 F= -.12918914E+03 E0= -.12918914E+03  d E =-.851681E-03
damped:  g(F)=  0.000E+00 g(S)=  0.000E+00 dE (1.order)= 0.000E+00
 bond charge predicted
       N       E                     dE             d eps       ncg     rms          rms(c)
DAV:   1    -0.129189588374E+03   -0.45036E-03   -0.27960E-01   332   0.262E+00    0.909E-02
DAV:   2    -0.129190157987E+03   -0.56961E-03   -0.67202E-03   363   0.346E-01    0.645E-02
DAV:   3    -0.129190127789E+03    0.30198E-04   -0.13490E-04   368   0.544E-02    0.408E-02
DAV:   4    -0.129190156974E+03   -0.29185E-04   -0.95992E-05   296   0.574E-02    0.618E-03
DAV:   5    -0.129190160789E+03   -0.38142E-05   -0.23300E-05   272   0.240E-02    0.514E-03
DAV:   6    -0.129190162592E+03   -0.18035E-05   -0.23603E-06   224   0.804E-03
  39 F= -.12919016E+03 E0= -.12919016E+03  d E =-.102297E-02
damped:  g(F)=  0.000E+00 g(S)=  0.000E+00 dE (1.order)= 0.000E+00
 bond charge predicted
       N       E                     dE             d eps       ncg     rms          rms(c)
DAV:   1    -0.129190556303E+03   -0.39551E-03   -0.37773E-01   329   0.303E+00    0.105E-01
DAV:   2    -0.129191318022E+03   -0.76172E-03   -0.89688E-03   356   0.398E-01    0.737E-02
DAV:   3    -0.129191280050E+03    0.37972E-04   -0.17741E-04   340   0.617E-02    0.462E-02
DAV:   4    -0.129191320474E+03   -0.40424E-04   -0.12465E-04   332   0.651E-02    0.691E-03
DAV:   5    -0.129191325587E+03   -0.51133E-05   -0.30463E-05   272   0.273E-02    0.604E-03
DAV:   6    -0.129191328484E+03   -0.28968E-05   -0.32301E-06   200   0.945E-03
  40 F= -.12919133E+03 E0= -.12919133E+03  d E =-.116589E-02
damped:  g(F)=  0.000E+00 g(S)=  0.000E+00 dE (1.order)= 0.000E+00
 bond charge predicted
       N       E                     dE             d eps       ncg     rms          rms(c)
DAV:   1    -0.129191604313E+03   -0.27873E-03   -0.50393E-01   332   0.349E+00    0.123E-01
DAV:   2    -0.129192619748E+03   -0.10154E-02   -0.12027E-02   346   0.463E-01    0.853E-02
DAV:   3    -0.129192569392E+03    0.50356E-04   -0.24446E-04   368   0.730E-02    0.532E-02
DAV:   4    -0.129192621344E+03   -0.51952E-04   -0.17080E-04   331   0.762E-02    0.819E-03
DAV:   5    -0.129192627918E+03   -0.65737E-05   -0.41817E-05   272   0.322E-02    0.706E-03
DAV:   6    -0.129192631649E+03   -0.37309E-05   -0.51719E-06   300   0.113E-02
  41 F= -.12919263E+03 E0= -.12919263E+03  d E =-.130316E-02
damped:  g(F)=  0.000E+00 g(S)=  0.000E+00 dE (1.order)= 0.000E+00
 bond charge predicted
       N       E                     dE             d eps       ncg     rms          rms(c)
DAV:   1    -0.129192779055E+03   -0.15114E-03   -0.62982E-01   332   0.390E+00    0.139E-01
DAV:   2    -0.129194049964E+03   -0.12709E-02   -0.15026E-02   364   0.516E-01    0.973E-02
DAV:   3    -0.129193986276E+03    0.63689E-04   -0.32302E-04   400   0.827E-02    0.611E-02
DAV:   4    -0.129194048746E+03   -0.62471E-04   -0.19728E-04   296   0.828E-02    0.950E-03
DAV:   5    -0.129194058031E+03   -0.92851E-05   -0.51106E-05   272   0.359E-02    0.804E-03
DAV:   6    -0.129194062159E+03   -0.41278E-05   -0.60804E-06   286   0.123E-02
  42 F= -.12919406E+03 E0= -.12919406E+03  d E =-.143051E-02
damped:  g(F)=  0.000E+00 g(S)=  0.000E+00 dE (1.order)= 0.000E+00
 bond charge predicted
       N       E                     dE             d eps       ncg     rms          rms(c)
DAV:   1    -0.129194012018E+03    0.46013E-04   -0.77492E-01   331   0.432E+00    0.154E-01
DAV:   2    -0.129195534263E+03   -0.15222E-02   -0.18200E-02   331   0.571E-01    0.106E-01
DAV:   3    -0.129195465019E+03    0.69245E-04   -0.40118E-04   399   0.919E-02    0.660E-02
DAV:   4    -0.129195540104E+03   -0.75085E-04   -0.25255E-04   363   0.912E-02    0.108E-02
DAV:   5    -0.129195549567E+03   -0.94628E-05   -0.57108E-05   304   0.370E-02    0.896E-03
DAV:   6    -0.129195553922E+03   -0.43550E-05   -0.52186E-06   302   0.118E-02
  43 F= -.12919555E+03 E0= -.12919555E+03  d E =-.149176E-02
damped:  g(F)=  0.000E+00 g(S)=  0.000E+00 dE (1.order)= 0.000E+00
 bond charge predicted
       N       E                     dE             d eps       ncg     rms          rms(c)
DAV:   1    -0.129195152266E+03    0.39730E-03   -0.90448E-01   331   0.468E+00    0.170E-01
DAV:   2    -0.129196947752E+03   -0.17955E-02   -0.21450E-02   364   0.620E-01    0.121E-01
DAV:   3    -0.129196857530E+03    0.90222E-04   -0.53302E-04   432   0.104E-01    0.754E-02
DAV:   4    -0.129196933259E+03   -0.75729E-04   -0.27624E-04   360   0.962E-02    0.129E-02
DAV:   5    -0.129196945952E+03   -0.12693E-04   -0.65792E-05   304   0.396E-02    0.102E-02
DAV:   6    -0.129196950288E+03   -0.43364E-05   -0.63143E-06   312   0.131E-02
  44 F= -.12919695E+03 E0= -.12919695E+03  d E =-.139637E-02
damped:  g(F)=  0.000E+00 g(S)=  0.000E+00 dE (1.order)= 0.000E+00
 bond charge predicted
       N       E                     dE             d eps       ncg     rms          rms(c)
DAV:   1    -0.129197114030E+03   -0.16808E-03   -0.82515E-03   352   0.485E-01    0.291E-02
DAV:   2    -0.129197145662E+03   -0.31632E-04   -0.37408E-04   388   0.901E-02    0.176E-02
DAV:   3    -0.129197145675E+03   -0.12956E-07   -0.12716E-05   270   0.210E-02    0.104E-02
DAV:   4    -0.129197149700E+03   -0.40256E-05   -0.10420E-05   297   0.172E-02    0.249E-03
DAV:   5    -0.129197152298E+03   -0.25977E-05   -0.24864E-06   304   0.865E-03    0.131E-03
DAV:   6    -0.129197153835E+03   -0.15374E-05   -0.41027E-07   272   0.343E-03
  45 F= -.12919715E+03 E0= -.12919715E+03  d E =-.203547E-03
damped:  g(F)=  0.000E+00 g(S)=  0.000E+00 dE (1.order)= 0.000E+00
 bond charge predicted
       N       E                     dE             d eps       ncg     rms          rms(c)
DAV:   1    -0.129197031136E+03    0.12116E-03   -0.13761E-02   331   0.628E-01    0.351E-02
DAV:   2    -0.129197073030E+03   -0.41894E-04   -0.60391E-04   426   0.114E-01    0.222E-02
DAV:   3    -0.129197065785E+03    0.72445E-05   -0.14284E-05   272   0.232E-02    0.134E-02
DAV:   4    -0.129197062114E+03    0.36710E-05   -0.17906E-05   296   0.226E-02    0.326E-03
DAV:   5    -0.129197062437E+03   -0.32333E-06   -0.42045E-06   336   0.114E-02    0.183E-03
DAV:   6    -0.129197063060E+03   -0.62239E-06   -0.58406E-07   270   0.422E-03
  46 F= -.12919706E+03 E0= -.12919706E+03  d E =0.907754E-04
damped:  g(F)=  0.000E+00 g(S)=  0.000E+00 dE (1.order)= 0.000E+00
 bond charge predicted
       N       E                     dE             d eps       ncg     rms          rms(c)
DAV:   1    -0.129197095900E+03   -0.33462E-04   -0.23443E-04   333   0.823E-02    0.450E-03
DAV:   2    -0.129197098047E+03   -0.21466E-05   -0.11783E-05   272   0.182E-02    0.289E-03
DAV:   3    -0.129197099165E+03   -0.11189E-05   -0.11706E-06   245   0.589E-03    0.186E-03
DAV:   4    -0.129197100967E+03   -0.18014E-05   -0.38726E-07   302   0.337E-03    0.595E-04
DAV:   5    -0.129197101776E+03   -0.80958E-06   -0.57757E-08   270   0.156E-03    0.272E-04
DAV:   6    -0.129197102505E+03   -0.72900E-06   -0.21728E-09   205   0.816E-04
  47 F= -.12919710E+03 E0= -.12919710E+03  d E =-.394456E-04
damped:  g(F)=  0.000E+00 g(S)=  0.000E+00 dE (1.order)= 0.000E+00
 bond charge predicted
       N       E                     dE             d eps       ncg     rms          rms(c)
DAV:   1    -0.129197144158E+03   -0.42381E-04   -0.78204E-04   380   0.150E-01    0.889E-03
DAV:   2    -0.129197146782E+03   -0.26238E-05   -0.33696E-05   298   0.281E-02    0.534E-03
DAV:   3    -0.129197146989E+03   -0.20746E-06   -0.29354E-06   256   0.900E-03    0.299E-03
DAV:   4    -0.129197147382E+03   -0.39334E-06   -0.85058E-07   272   0.496E-03    0.101E-03
DAV:   5    -0.129197147678E+03   -0.29572E-06   -0.23078E-07   264   0.281E-03    0.400E-04
DAV:   6    -0.129197147836E+03   -0.15755E-06   -0.43865E-08   256   0.131E-03
  48 F= -.12919715E+03 E0= -.12919715E+03  d E =-.453303E-04
damped:  g(F)=  0.000E+00 g(S)=  0.000E+00 dE (1.order)= 0.000E+00
 bond charge predicted
       N       E                     dE             d eps       ncg     rms          rms(c)
DAV:   1    -0.129197171650E+03   -0.23972E-04   -0.12369E-03   366   0.189E-01    0.110E-02
DAV:   2    -0.129197174410E+03   -0.27596E-05   -0.52507E-05   333   0.351E-02    0.667E-03
DAV:   3    -0.129197173738E+03    0.67157E-06   -0.46173E-06   272   0.112E-02    0.376E-03
DAV:   4    -0.129197173129E+03    0.60948E-06   -0.12484E-06   240   0.618E-03    0.125E-03
DAV:   5    -0.129197172988E+03    0.14094E-06   -0.38235E-07   256   0.348E-03    0.474E-04
DAV:   6    -0.129197173098E+03   -0.11047E-06   -0.81047E-08   224   0.167E-03
  49 F= -.12919717E+03 E0= -.12919717E+03  d E =-.252623E-04
damped:  g(F)=  0.000E+00 g(S)=  0.000E+00 dE (1.order)= 0.000E+00
 bond charge predicted
       N       E                     dE             d eps       ncg     rms          rms(c)
DAV:   1    -0.129197174442E+03   -0.14547E-05   -0.11828E-03   367   0.185E-01    0.103E-02
DAV:   2    -0.129197176731E+03   -0.22890E-05   -0.44924E-05   238   0.332E-02    0.626E-03
DAV:   3    -0.129197176367E+03    0.36418E-06   -0.52169E-06   264   0.118E-02    0.360E-03
DAV:   4    -0.129197175977E+03    0.39036E-06   -0.15741E-06   208   0.664E-03    0.115E-03
DAV:   5    -0.129197175992E+03   -0.15554E-07   -0.44059E-07   206   0.357E-03    0.511E-04
DAV:   6    -0.129197176172E+03   -0.17924E-06   -0.12483E-07   202   0.184E-03
  50 F= -.12919718E+03 E0= -.12919718E+03  d E =-.307356E-05
damped:  g(F)=  0.000E+00 g(S)=  0.000E+00 dE (1.order)= 0.000E+00
 bond charge predicted
       N       E                     dE             d eps       ncg     rms          rms(c)
DAV:   1    -0.129197179663E+03   -0.36708E-05   -0.30164E-06   238   0.949E-03    0.481E-04
DAV:   2    -0.129197179906E+03   -0.24267E-06   -0.19913E-07   202   0.265E-03    0.329E-04
DAV:   3    -0.129197180136E+03   -0.23056E-06   -0.73909E-09   212   0.835E-04    0.223E-04
DAV:   4    -0.129197180603E+03   -0.46663E-06    0.72646E-10   292   0.564E-04    0.795E-05
DAV:   5    -0.129197180759E+03   -0.15551E-06    0.22853E-08   212   0.235E-04    0.557E-05
DAV:   6    -0.129197181015E+03   -0.25685E-06    0.24144E-08   236   0.176E-04
  51 F= -.12919718E+03 E0= -.12919718E+03  d E =-.484380E-05
damped:  g(F)=  0.000E+00 g(S)=  0.000E+00 dE (1.order)= 0.000E+00
 bond charge predicted
       N       E                     dE             d eps       ncg     rms          rms(c)
DAV:   1    -0.129197188101E+03   -0.73429E-05   -0.13738E-05   235   0.200E-02    0.822E-04
DAV:   2    -0.129197188302E+03   -0.20012E-06   -0.91262E-07   272   0.549E-03    0.539E-04
DAV:   3    -0.129197188396E+03   -0.94593E-07   -0.84287E-08   202   0.161E-03    0.424E-04
DAV:   4    -0.129197188543E+03   -0.14643E-06   -0.34802E-09   247   0.884E-04    0.147E-04
DAV:   5    -0.129197188631E+03   -0.88407E-07    0.14085E-08   270   0.480E-04    0.904E-05
DAV:   6    -0.129197188667E+03   -0.35727E-07    0.21078E-08   165   0.290E-04
  52 F= -.12919719E+03 E0= -.12919719E+03  d E =-.765131E-05
damped:  g(F)=  0.000E+00 g(S)=  0.000E+00 dE (1.order)= 0.000E+00
 bond charge predicted
       N       E                     dE             d eps       ncg     rms          rms(c)
DAV:   1    -0.129197199490E+03   -0.10859E-04   -0.37155E-05   168   0.325E-02    0.125E-03
DAV:   2    -0.129197199717E+03   -0.22653E-06   -0.24690E-06   222   0.893E-03    0.836E-04
DAV:   3    -0.129197199744E+03   -0.27636E-07   -0.27554E-07   166   0.257E-03    0.673E-04
DAV:   4    -0.129197199754E+03   -0.98762E-08   -0.60522E-08   222   0.139E-03    0.238E-04
DAV:   5    -0.129197199764E+03   -0.10060E-07   -0.10227E-08   170   0.763E-04    0.147E-04
DAV:   6    -0.129197199772E+03   -0.80017E-08    0.11144E-08   166   0.459E-04
  53 F= -.12919720E+03 E0= -.12919720E+03  d E =-.111057E-04
damped:  g(F)=  0.000E+00 g(S)=  0.000E+00 dE (1.order)= 0.000E+00
 bond charge predicted
       N       E                     dE             d eps       ncg     rms          rms(c)
DAV:   1    -0.129197214899E+03   -0.15135E-04   -0.82631E-05   164   0.480E-02    0.173E-03
DAV:   2    -0.129197215382E+03   -0.48302E-06   -0.53619E-06   194   0.132E-02    0.115E-03
DAV:   3    -0.129197215429E+03   -0.46322E-07   -0.60038E-07   165   0.371E-03    0.947E-04
DAV:   4    -0.129197215431E+03   -0.22283E-08   -0.14293E-07   202   0.195E-03    0.348E-04
DAV:   5    -0.129197215436E+03   -0.46593E-08   -0.43330E-08   169   0.108E-03    0.206E-04
DAV:   6    -0.129197215445E+03   -0.94415E-08    0.43386E-10   166   0.645E-04
  54 F= -.12919722E+03 E0= -.12919722E+03  d E =-.156725E-04
damped:  g(F)=  0.000E+00 g(S)=  0.000E+00 dE (1.order)= 0.000E+00
 bond charge predicted
       N       E                     dE             d eps       ncg     rms          rms(c)
DAV:   1    -0.129197235687E+03   -0.20251E-04   -0.17121E-04   196   0.676E-02    0.235E-03
DAV:   2    -0.129197236338E+03   -0.65120E-06   -0.78315E-06   216   0.157E-02    0.155E-03
DAV:   3    -0.129197236381E+03   -0.42658E-07   -0.75238E-07   164   0.461E-03    0.121E-03
DAV:   4    -0.129197236375E+03    0.58585E-08   -0.19239E-07   208   0.256E-03    0.280E-04
DAV:   5    -0.129197236380E+03   -0.55288E-08   -0.42941E-08   166   0.118E-03    0.215E-04
DAV:   6    -0.129197236395E+03   -0.15119E-07    0.26743E-10   164   0.665E-04
  55 F= -.12919724E+03 E0= -.12919724E+03  d E =-.209504E-04
damped:  g(F)=  0.000E+00 g(S)=  0.000E+00 dE (1.order)= 0.000E+00
 bond charge predicted
       N       E                     dE             d eps       ncg     rms          rms(c)
DAV:   1    -0.129197236569E+03   -0.18867E-06   -0.87669E-08   164   0.174E-03    0.948E-05
DAV:   2    -0.129197236581E+03   -0.11890E-07    0.12217E-08   164   0.516E-04    0.648E-05
DAV:   3    -0.129197236593E+03   -0.12502E-07    0.19696E-08   164   0.203E-04    0.447E-05
DAV:   4    -0.129197236610E+03   -0.16281E-07    0.21045E-08   171   0.129E-04    0.144E-05
DAV:   5    -0.129197236616E+03   -0.60645E-08    0.21607E-08   164   0.794E-05    0.122E-05
DAV:   6    -0.129197236622E+03   -0.61418E-08    0.21447E-08   164   0.692E-05
  56 F= -.12919724E+03 E0= -.12919724E+03  d E =-.226429E-06
damped:  g(F)=  0.000E+00 g(S)=  0.000E+00 dE (1.order)= 0.000E+00
 bond charge predicted
       N       E                     dE             d eps       ncg     rms          rms(c)
DAV:   1    -0.129197236922E+03   -0.30670E-06   -0.37829E-07   183   0.340E-03    0.134E-04
DAV:   2    -0.129197236926E+03   -0.36789E-08   -0.31390E-09   164   0.896E-04    0.806E-05
DAV:   3    -0.129197236926E+03   -0.40382E-09    0.18416E-08   164   0.270E-04    0.602E-05
DAV:   4    -0.129197236924E+03    0.25320E-08    0.20469E-08   164   0.144E-04    0.173E-05
DAV:   5    -0.129197236922E+03    0.18472E-08    0.20871E-08   164   0.711E-05    0.119E-05
DAV:   6    -0.129197236920E+03    0.17753E-08    0.21001E-08   164   0.419E-05
  57 F= -.12919724E+03 E0= -.12919724E+03  d E =-.298485E-06
damped:  g(F)=  0.000E+00 g(S)=  0.000E+00 dE (1.order)= 0.000E+00
 bond charge predicted
       N       E                     dE             d eps       ncg     rms          rms(c)
DAV:   1    -0.129197237359E+03   -0.43654E-06   -0.87032E-07   164   0.507E-03    0.199E-04
DAV:   2    -0.129197237365E+03   -0.66984E-08   -0.33981E-08   164   0.134E-03    0.119E-04
DAV:   3    -0.129197237366E+03   -0.59936E-09    0.14085E-08   164   0.400E-04    0.895E-05
DAV:   4    -0.129197237365E+03    0.85765E-09    0.18938E-08   164   0.210E-04    0.254E-05
DAV:   5    -0.129197237364E+03    0.12142E-08    0.20150E-08   164   0.102E-04    0.172E-05
DAV:   6    -0.129197237363E+03    0.99863E-09    0.20540E-08   164   0.586E-05
  58 F= -.12919724E+03 E0= -.12919724E+03  d E =-.442539E-06
damped:  g(F)=  0.000E+00 g(S)=  0.000E+00 dE (1.order)= 0.000E+00
 bond charge predicted
       N       E                     dE             d eps       ncg     rms          rms(c)
DAV:   1    -0.129197237933E+03   -0.56898E-06   -0.15465E-06   164   0.672E-03    0.264E-04
DAV:   2    -0.129197237945E+03   -0.12390E-07   -0.75757E-08   164   0.177E-03    0.158E-04
DAV:   3    -0.129197237947E+03   -0.14534E-08    0.87556E-09   164   0.531E-04    0.118E-04
DAV:   4    -0.129197237947E+03   -0.47839E-09    0.17531E-08   164   0.278E-04    0.332E-05
DAV:   5    -0.129197237947E+03    0.62482E-09    0.19635E-08   164   0.135E-04    0.227E-05
DAV:   6    -0.129197237946E+03    0.65847E-09    0.20344E-08   164   0.772E-05
  59 F= -.12919724E+03 E0= -.12919724E+03  d E =-.583013E-06
damped:  g(F)=  0.000E+00 g(S)=  0.000E+00 dE (1.order)= 0.000E+00
 bond charge predicted
       N       E                     dE             d eps       ncg     rms          rms(c)
DAV:   1    -0.129197238637E+03   -0.69039E-06   -0.23906E-06   164   0.834E-03    0.328E-04
DAV:   2    -0.129197238655E+03   -0.18134E-07   -0.12757E-07   164   0.220E-03    0.195E-04
DAV:   3    -0.129197238658E+03   -0.25184E-08    0.22761E-09   164   0.659E-04    0.146E-04
DAV:   4    -0.129197238658E+03   -0.71395E-09    0.15843E-08   164   0.345E-04    0.406E-05
DAV:   5    -0.129197238658E+03    0.40382E-09    0.19198E-08   164   0.168E-04    0.280E-05
DAV:   6    -0.129197238658E+03    0.34925E-09    0.20321E-08   164   0.954E-05
  60 F= -.12919724E+03 E0= -.12919724E+03  d E =-.711657E-06
damped:  g(F)=  0.000E+00 g(S)=  0.000E+00 dE (1.order)= 0.000E+00
 bond charge predicted
       N       E                     dE             d eps       ncg     rms          rms(c)
DAV:   1    -0.129197239456E+03   -0.79831E-06   -0.33931E-06   164   0.992E-03    0.390E-04
DAV:   2    -0.129197239481E+03   -0.24560E-07   -0.18886E-07   164   0.261E-03    0.232E-04
DAV:   3    -0.129197239484E+03   -0.33451E-08   -0.52086E-09   164   0.784E-04    0.173E-04
DAV:   4    -0.129197239485E+03   -0.86948E-09    0.13843E-08   164   0.410E-04    0.476E-05
DAV:   5    -0.129197239485E+03   -0.13551E-09    0.18511E-08   164   0.199E-04    0.332E-05
DAV:   6    -0.129197239484E+03    0.98680E-09    0.20089E-08   164   0.113E-04
  61 F= -.12919724E+03 E0= -.12919724E+03  d E =-.826581E-06
damped:  g(F)=  0.000E+00 g(S)=  0.000E+00 dE (1.order)= 0.000E+00
 bond charge predicted
       N       E                     dE             d eps       ncg     rms          rms(c)
DAV:   1    -0.129197240476E+03   -0.99094E-06   -0.56387E-06   164   0.128E-02    0.501E-04
DAV:   2    -0.129197240514E+03   -0.38157E-07   -0.32520E-07   164   0.335E-03    0.297E-04
DAV:   3    -0.129197240519E+03   -0.48922E-08   -0.22145E-08   164   0.101E-03    0.221E-04
DAV:   4    -0.129197240520E+03   -0.13642E-08    0.95223E-09   164   0.525E-04    0.601E-05
DAV:   5    -0.129197240520E+03    0.26012E-09    0.17140E-08   164   0.255E-04    0.424E-05
DAV:   6    -0.129197240520E+03    0.66120E-09    0.19703E-08   164   0.144E-04
  62 F= -.12919724E+03 E0= -.12919724E+03  d E =-.103542E-05
damped:  g(F)=  0.000E+00 g(S)=  0.000E+00 dE (1.order)= 0.000E+00
 bond charge predicted
       N       E                     dE             d eps       ncg     rms          rms(c)
DAV:   1    -0.129197241725E+03   -0.12045E-05   -0.91591E-06   164   0.162E-02    0.636E-04
DAV:   2    -0.129197241783E+03   -0.58824E-07   -0.53762E-07   164   0.426E-03    0.375E-04
DAV:   3    -0.129197241792E+03   -0.84428E-08   -0.48402E-08   164   0.128E-03    0.278E-04
DAV:   4    -0.129197241793E+03   -0.13442E-08    0.25864E-09   164   0.665E-04    0.749E-05
DAV:   5    -0.129197241793E+03   -0.15825E-09    0.14817E-08   164   0.322E-04    0.534E-05
DAV:   6    -0.129197241792E+03    0.10659E-08    0.18963E-08   164   0.181E-04
  63 F= -.12919724E+03 E0= -.12919724E+03  d E =-.127285E-05
damped:  g(F)=  0.000E+00 g(S)=  0.000E+00 dE (1.order)= 0.000E+00
 bond charge predicted
       N       E                     dE             d eps       ncg     rms          rms(c)
DAV:   1    -0.129197243222E+03   -0.14290E-05   -0.14595E-05   164   0.205E-02    0.799E-04
DAV:   2    -0.129197243312E+03   -0.89720E-07   -0.86241E-07   164   0.536E-03    0.468E-04
DAV:   3    -0.129197243324E+03   -0.11640E-07   -0.88581E-08   164   0.161E-03    0.346E-04
DAV:   4    -0.129197243327E+03   -0.28522E-08   -0.79017E-09   164   0.833E-04    0.919E-05
DAV:   5    -0.129197243327E+03    0.60027E-10    0.11496E-08   164   0.403E-04    0.667E-05
DAV:   6    -0.129197243326E+03    0.53024E-09    0.17999E-08   164   0.225E-04
  64 F= -.12919724E+03 E0= -.12919724E+03  d E =-.153369E-05
damped:  g(F)=  0.000E+00 g(S)=  0.000E+00 dE (1.order)= 0.000E+00
 bond charge predicted
       N       E                     dE             d eps       ncg     rms          rms(c)
DAV:   1    -0.129197244986E+03   -0.16593E-05   -0.22884E-05   164   0.256E-02    0.995E-04
DAV:   2    -0.129197245123E+03   -0.13689E-06   -0.13520E-06   164   0.669E-03    0.578E-04
DAV:   3    -0.129197245140E+03   -0.17415E-07   -0.14933E-07   164   0.201E-03    0.426E-04
DAV:   4    -0.129197245144E+03   -0.33069E-08   -0.23715E-08   164   0.103E-03    0.111E-04
DAV:   5    -0.129197245144E+03   -0.38744E-09    0.61668E-09   164   0.499E-04    0.823E-05
DAV:   6    -0.129197245143E+03    0.68576E-09    0.16299E-08   164   0.278E-04
  65 F= -.12919725E+03 E0= -.12919725E+03  d E =-.181717E-05
damped:  g(F)=  0.000E+00 g(S)=  0.000E+00 dE (1.order)= 0.000E+00
 bond charge predicted
       N       E                     dE             d eps       ncg     rms          rms(c)
DAV:   1    -0.129197247037E+03   -0.18934E-05   -0.35397E-05   164   0.317E-02    0.123E-03
DAV:   2    -0.129197247243E+03   -0.20531E-06   -0.20814E-06   164   0.828E-03    0.707E-04
DAV:   3    -0.129197247269E+03   -0.26700E-07   -0.23975E-07   164   0.248E-03    0.518E-04
DAV:   4    -0.129197247274E+03   -0.45911E-08   -0.47233E-08   164   0.127E-03    0.132E-04
DAV:   5    -0.129197247275E+03   -0.16125E-08   -0.17554E-09   164   0.612E-04    0.101E-04
DAV:   6    -0.129197247276E+03   -0.24556E-09    0.13679E-08   164   0.340E-04
  66 F= -.12919725E+03 E0= -.12919725E+03  d E =-.213250E-05
damped:  g(F)=  0.000E+00 g(S)=  0.000E+00 dE (1.order)= 0.000E+00
 bond charge predicted
       N       E                     dE             d eps       ncg     rms          rms(c)
DAV:   1    -0.129197249405E+03   -0.21291E-05   -0.54178E-05   164   0.392E-02    0.151E-03
DAV:   2    -0.129197249711E+03   -0.30666E-06   -0.31613E-06   164   0.102E-02    0.859E-04
DAV:   3    -0.129197249751E+03   -0.39838E-07   -0.37357E-07   164   0.305E-03    0.626E-04
DAV:   4    -0.129197249760E+03   -0.91518E-08   -0.81963E-08   164   0.155E-03    0.154E-04
DAV:   5    -0.129197249762E+03   -0.17480E-08   -0.13551E-08   164   0.746E-04    0.122E-04
DAV:   6    -0.129197249762E+03   -0.48612E-09    0.96723E-09   164   0.414E-04
  67 F= -.12919725E+03 E0= -.12919725E+03  d E =-.248676E-05
damped:  g(F)=  0.000E+00 g(S)=  0.000E+00 dE (1.order)= 0.000E+00
 bond charge predicted
       N       E                     dE             d eps       ncg     rms          rms(c)
DAV:   1    -0.129197252152E+03   -0.23896E-05   -0.82196E-05   164   0.481E-02    0.185E-03
DAV:   2    -0.129197252608E+03   -0.45636E-06   -0.47521E-06   164   0.125E-02    0.104E-03
DAV:   3    -0.129197252669E+03   -0.61016E-07   -0.57053E-07   164   0.373E-03    0.750E-04
DAV:   4    -0.129197252684E+03   -0.14766E-07   -0.13291E-07   164   0.188E-03    0.178E-04
DAV:   5    -0.129197252687E+03   -0.30623E-08   -0.31054E-08   164   0.906E-04    0.147E-04
DAV:   6    -0.129197252689E+03   -0.20100E-08    0.36071E-09   164   0.502E-04
  68 F= -.12919725E+03 E0= -.12919725E+03  d E =-.292631E-05
damped:  g(F)=  0.000E+00 g(S)=  0.000E+00 dE (1.order)= 0.000E+00
 bond charge predicted
       N       E                     dE             d eps       ncg     rms          rms(c)
DAV:   1    -0.129197255584E+03   -0.28971E-05   -0.12617E-04   196   0.590E-02    0.228E-03
DAV:   2    -0.129197256084E+03   -0.50007E-06   -0.54379E-06   164   0.134E-02    0.128E-03
DAV:   3    -0.129197256149E+03   -0.65382E-07   -0.58361E-07   164   0.413E-03    0.851E-04
DAV:   4    -0.129197256168E+03   -0.18662E-07   -0.12938E-07   164   0.202E-03    0.145E-04
DAV:   5    -0.129197256172E+03   -0.35725E-08   -0.25556E-08   164   0.993E-04    0.149E-04
DAV:   6    -0.129197256173E+03   -0.91677E-09    0.67960E-09   164   0.514E-04
  69 F= -.12919726E+03 E0= -.12919726E+03  d E =-.348373E-05
damped:  g(F)=  0.000E+00 g(S)=  0.000E+00 dE (1.order)= 0.000E+00
 bond charge predicted
       N       E                     dE             d eps       ncg     rms          rms(c)
DAV:   1    -0.129197259523E+03   -0.33518E-05   -0.18972E-04   196   0.722E-02    0.278E-03
DAV:   2    -0.129197260263E+03   -0.73946E-06   -0.80891E-06   164   0.163E-02    0.155E-03
DAV:   3    -0.129197260364E+03   -0.10094E-06   -0.87397E-07   164   0.503E-03    0.103E-03
DAV:   4    -0.129197260395E+03   -0.30800E-07   -0.19760E-07   164   0.243E-03    0.165E-04
DAV:   5    -0.129197260399E+03   -0.46830E-08   -0.46888E-08   164   0.120E-03    0.175E-04
DAV:   6    -0.129197260401E+03   -0.16189E-08    0.44474E-10   164   0.618E-04
  70 F= -.12919726E+03 E0= -.12919726E+03  d E =-.422838E-05
damped:  g(F)=  0.000E+00 g(S)=  0.000E+00 dE (1.order)= 0.000E+00
 bond charge predicted
       N       E                     dE             d eps       ncg     rms          rms(c)
DAV:   1    -0.129197265026E+03   -0.46270E-05   -0.29324E-04   260   0.885E-02    0.342E-03
DAV:   2    -0.129197265480E+03   -0.45361E-06   -0.58612E-06   164   0.123E-02    0.204E-03
DAV:   3    -0.129197265562E+03   -0.82039E-07   -0.64296E-07   164   0.433E-03    0.106E-03
DAV:   4    -0.129197265602E+03   -0.39797E-07   -0.16071E-07   164   0.216E-03    0.206E-04
DAV:   5    -0.129197265604E+03   -0.25220E-08   -0.36266E-08   164   0.112E-03    0.132E-04
DAV:   6    -0.129197265606E+03   -0.13606E-08    0.15557E-09   164   0.557E-04
  71 F= -.12919727E+03 E0= -.12919727E+03  d E =-.520471E-05
damped:  g(F)=  0.000E+00 g(S)=  0.000E+00 dE (1.order)= 0.000E+00
 bond charge predicted
       N       E                     dE             d eps       ncg     rms          rms(c)
DAV:   1    -0.129197271119E+03   -0.55151E-05   -0.44195E-04   292   0.109E-01    0.418E-03
DAV:   2    -0.129197271795E+03   -0.67601E-06   -0.88217E-06   164   0.151E-02    0.249E-03
DAV:   3    -0.129197271921E+03   -0.12513E-06   -0.97415E-07   164   0.530E-03    0.131E-03
DAV:   4    -0.129197271982E+03   -0.61767E-07   -0.24883E-07   164   0.263E-03    0.250E-04
DAV:   5    -0.129197271987E+03   -0.47403E-08   -0.64760E-08   164   0.136E-03    0.162E-04
DAV:   6    -0.129197271989E+03   -0.22865E-08   -0.84679E-09   164   0.674E-04
  72 F= -.12919727E+03 E0= -.12919727E+03  d E =-.638372E-05
damped:  g(F)=  0.000E+00 g(S)=  0.000E+00 dE (1.order)= 0.000E+00
 bond charge predicted
       N       E                     dE             d eps       ncg     rms          rms(c)
DAV:   1    -0.129197278673E+03   -0.66863E-05   -0.66880E-04   324   0.133E-01    0.513E-03
DAV:   2    -0.129197279440E+03   -0.76710E-06   -0.10863E-05   164   0.160E-02    0.313E-03
DAV:   3    -0.129197279588E+03   -0.14707E-06   -0.11684E-06   164   0.545E-03    0.160E-03
DAV:   4    -0.129197279681E+03   -0.93243E-07   -0.31856E-07   164   0.276E-03    0.316E-04
DAV:   5    -0.129197279689E+03   -0.85220E-08   -0.92026E-08   164   0.141E-03    0.191E-04
DAV:   6    -0.129197279694E+03   -0.44865E-08   -0.20081E-08   164   0.714E-04
  73 F= -.12919728E+03 E0= -.12919728E+03  d E =-.770442E-05
damped:  g(F)=  0.000E+00 g(S)=  0.000E+00 dE (1.order)= 0.000E+00
 bond charge predicted
       N       E                     dE             d eps       ncg     rms          rms(c)
DAV:   1    -0.129197287135E+03   -0.74459E-05   -0.10035E-03   324   0.164E-01    0.628E-03
DAV:   2    -0.129197288285E+03   -0.11499E-05   -0.16396E-05   164   0.196E-02    0.385E-03
DAV:   3    -0.129197288507E+03   -0.22211E-06   -0.17706E-06   164   0.669E-03    0.197E-03
DAV:   4    -0.129197288655E+03   -0.14766E-06   -0.48958E-07   164   0.339E-03    0.390E-04
DAV:   5    -0.129197288670E+03   -0.15591E-07   -0.14898E-07   164   0.173E-03    0.235E-04
DAV:   6    -0.129197288678E+03   -0.76934E-08   -0.40653E-08   164   0.878E-04
  74 F= -.12919729E+03 E0= -.12919729E+03  d E =-.898438E-05
damped:  g(F)=  0.000E+00 g(S)=  0.000E+00 dE (1.order)= 0.000E+00
 bond charge predicted
       N       E                     dE             d eps       ncg     rms          rms(c)
DAV:   1    -0.129197296456E+03   -0.77858E-05   -0.14964E-03   324   0.200E-01    0.767E-03
DAV:   2    -0.129197298163E+03   -0.17066E-05   -0.24447E-05   164   0.240E-02    0.470E-03
DAV:   3    -0.129197298498E+03   -0.33475E-06   -0.26440E-06   164   0.816E-03    0.240E-03
DAV:   4    -0.129197298724E+03   -0.22661E-06   -0.73752E-07   164   0.413E-03    0.474E-04
DAV:   5    -0.129197298750E+03   -0.25867E-07   -0.23102E-07   164   0.211E-03    0.286E-04
DAV:   6    -0.129197298763E+03   -0.12527E-07   -0.70191E-08   164   0.107E-03
  75 F= -.12919730E+03 E0= -.12919730E+03  d E =-.100844E-04
damped:  g(F)=  0.000E+00 g(S)=  0.000E+00 dE (1.order)= 0.000E+00
 bond charge predicted
       N       E                     dE             d eps       ncg     rms          rms(c)
DAV:   1    -0.129197306553E+03   -0.78027E-05   -0.22154E-03   324   0.243E-01    0.934E-03
DAV:   2    -0.129197309059E+03   -0.25060E-05   -0.35984E-05   200   0.291E-02    0.572E-03
DAV:   3    -0.129197309556E+03   -0.49751E-06   -0.38895E-06   164   0.988E-03    0.290E-03
DAV:   4    -0.129197309900E+03   -0.34391E-06   -0.10918E-06   164   0.498E-03    0.567E-04
DAV:   5    -0.129197309941E+03   -0.40983E-07   -0.34822E-07   164   0.253E-03    0.342E-04
DAV:   6    -0.129197309959E+03   -0.17970E-07   -0.11292E-07   164   0.129E-03
  76 F= -.12919731E+03 E0= -.12919731E+03  d E =-.111965E-04
damped:  g(F)=  0.000E+00 g(S)=  0.000E+00 dE (1.order)= 0.000E+00
 bond charge predicted
       N       E                     dE             d eps       ncg     rms          rms(c)
DAV:   1    -0.129197317363E+03   -0.74223E-05   -0.32639E-03   324   0.295E-01    0.113E-02
DAV:   2    -0.129197321038E+03   -0.36742E-05   -0.52767E-05   200   0.352E-02    0.695E-03
DAV:   3    -0.129197321772E+03   -0.73463E-06   -0.56955E-06   164   0.119E-02    0.350E-03
DAV:   4    -0.129197322283E+03   -0.51076E-06   -0.16111E-06   164   0.600E-03    0.676E-04
DAV:   5    -0.129197322344E+03   -0.60585E-07   -0.51888E-07   164   0.303E-03    0.410E-04
DAV:   6    -0.129197322371E+03   -0.27316E-07   -0.17558E-07   164   0.155E-03
  77 F= -.12919732E+03 E0= -.12919732E+03  d E =-.124117E-04
damped:  g(F)=  0.000E+00 g(S)=  0.000E+00 dE (1.order)= 0.000E+00
 bond charge predicted
       N       E                     dE             d eps       ncg     rms          rms(c)
DAV:   1    -0.129197328653E+03   -0.63098E-05   -0.47967E-03   324   0.357E-01    0.138E-02
DAV:   2    -0.129197334065E+03   -0.54120E-05   -0.77612E-05   226   0.426E-02    0.845E-03
DAV:   3    -0.129197335121E+03   -0.10560E-05   -0.83659E-06   166   0.144E-02    0.424E-03
DAV:   4    -0.129197335873E+03   -0.75178E-06   -0.23833E-06   198   0.727E-03    0.819E-04
DAV:   5    -0.129197335960E+03   -0.87019E-07   -0.77192E-07   164   0.366E-03    0.497E-04
DAV:   6    -0.129197336000E+03   -0.40175E-07   -0.26817E-07   164   0.188E-03
  78 F= -.12919734E+03 E0= -.12919734E+03  d E =-.136294E-04
damped:  g(F)=  0.000E+00 g(S)=  0.000E+00 dE (1.order)= 0.000E+00
 bond charge predicted
       N       E                     dE             d eps       ncg     rms          rms(c)
DAV:   1    -0.129197339344E+03   -0.33843E-05   -0.70311E-03   324   0.433E-01    0.167E-02
DAV:   2    -0.129197347674E+03   -0.83294E-05   -0.11770E-04   270   0.517E-02    0.103E-02
DAV:   3    -0.129197348791E+03   -0.11170E-05   -0.89449E-06   201   0.137E-02    0.539E-03
DAV:   4    -0.129197349923E+03   -0.11326E-05   -0.35370E-06   236   0.850E-03    0.988E-04
DAV:   5    -0.129197350045E+03   -0.12127E-06   -0.11382E-06   164   0.429E-03    0.635E-04
DAV:   6    -0.129197350105E+03   -0.60306E-07   -0.38894E-07   164   0.207E-03
  79 F= -.12919735E+03 E0= -.12919735E+03  d E =-.141047E-04
damped:  g(F)=  0.000E+00 g(S)=  0.000E+00 dE (1.order)= 0.000E+00
 bond charge predicted
       N       E                     dE             d eps       ncg     rms          rms(c)
DAV:   1    -0.129197348462E+03    0.15823E-05   -0.10265E-02   327   0.523E-01    0.203E-02
DAV:   2    -0.129197360629E+03   -0.12167E-04   -0.17181E-04   268   0.624E-02    0.125E-02
DAV:   3    -0.129197362253E+03   -0.16240E-05   -0.13062E-05   201   0.165E-02    0.651E-03
DAV:   4    -0.129197363885E+03   -0.16325E-05   -0.51399E-06   238   0.102E-02    0.119E-03
DAV:   5    -0.129197364069E+03   -0.18360E-06   -0.16618E-06   165   0.517E-03    0.762E-04
DAV:   6    -0.129197364159E+03   -0.90018E-07   -0.57513E-07   164   0.249E-03
  80 F= -.12919736E+03 E0= -.12919736E+03  d E =-.140541E-04
damped:  g(F)=  0.000E+00 g(S)=  0.000E+00 dE (1.order)= 0.000E+00
 bond charge predicted
       N       E                     dE             d eps       ncg     rms          rms(c)
DAV:   1    -0.129197354753E+03    0.93158E-05   -0.14961E-02   328   0.631E-01    0.245E-02
DAV:   2    -0.129197373733E+03   -0.18980E-04   -0.26249E-04   300   0.755E-02    0.153E-02
DAV:   3    -0.129197375296E+03   -0.15632E-05   -0.12483E-05   219   0.180E-02    0.809E-03
DAV:   4    -0.129197377449E+03   -0.21528E-05   -0.52464E-06   254   0.120E-02    0.136E-03
DAV:   5    -0.129197377607E+03   -0.15808E-06   -0.14586E-06   174   0.560E-03    0.106E-03
DAV:   6    -0.129197377701E+03   -0.93588E-07   -0.38782E-07   190   0.267E-03
  81 F= -.12919738E+03 E0= -.12919738E+03  d E =-.135418E-04
damped:  g(F)=  0.000E+00 g(S)=  0.000E+00 dE (1.order)= 0.000E+00
 bond charge predicted
       N       E                     dE             d eps       ncg     rms          rms(c)
DAV:   1    -0.129197356496E+03    0.21111E-04   -0.21802E-02   328   0.762E-01    0.298E-02
DAV:   2    -0.129197384157E+03   -0.27661E-04   -0.38352E-04   300   0.913E-02    0.186E-02
DAV:   3    -0.129197386431E+03   -0.22744E-05   -0.18257E-05   228   0.218E-02    0.981E-03
DAV:   4    -0.129197389569E+03   -0.31374E-05   -0.76627E-06   255   0.146E-02    0.165E-03
DAV:   5    -0.129197389798E+03   -0.22963E-06   -0.21276E-06   201   0.677E-03    0.127E-03
DAV:   6    -0.129197389932E+03   -0.13420E-06   -0.56666E-07   191   0.321E-03
  82 F= -.12919739E+03 E0= -.12919739E+03  d E =-.122316E-04
damped:  g(F)=  0.000E+00 g(S)=  0.000E+00 dE (1.order)= 0.000E+00
 bond charge predicted
       N       E                     dE             d eps       ncg     rms          rms(c)
DAV:   1    -0.129197351507E+03    0.38292E-04   -0.31628E-02   328   0.919E-01    0.360E-02
DAV:   2    -0.129197393151E+03   -0.41644E-04   -0.57163E-04   324   0.110E-01    0.228E-02
DAV:   3    -0.129197395157E+03   -0.20058E-05   -0.17413E-05   228   0.227E-02    0.123E-02
DAV:   4    -0.129197399705E+03   -0.45485E-05   -0.10246E-05   244   0.172E-02    0.205E-03
DAV:   5    -0.129197399974E+03   -0.26895E-06   -0.27856E-06   201   0.784E-03    0.162E-03
DAV:   6    -0.129197400143E+03   -0.16849E-06   -0.65444E-07   200   0.341E-03
  83 F= -.12919740E+03 E0= -.12919740E+03  d E =-.102102E-04
damped:  g(F)=  0.000E+00 g(S)=  0.000E+00 dE (1.order)= 0.000E+00
 bond charge predicted
       N       E                     dE             d eps       ncg     rms          rms(c)
DAV:   1    -0.129197336381E+03    0.63593E-04   -0.45971E-02   328   0.111E+00    0.435E-02
DAV:   2    -0.129197398593E+03   -0.62211E-04   -0.84579E-04   330   0.133E-01    0.279E-02
DAV:   3    -0.129197400148E+03   -0.15548E-05   -0.17141E-05   221   0.234E-02    0.152E-02
DAV:   4    -0.129197406927E+03   -0.67798E-05   -0.14733E-05   235   0.207E-02    0.267E-03
DAV:   5    -0.129197407283E+03   -0.35622E-06   -0.41216E-06   215   0.953E-03    0.215E-03
DAV:   6    -0.129197407519E+03   -0.23578E-06   -0.92091E-07   200   0.396E-03
  84 F= -.12919741E+03 E0= -.12919741E+03  d E =-.737661E-05
damped:  g(F)=  0.000E+00 g(S)=  0.000E+00 dE (1.order)= 0.000E+00
 bond charge predicted
       N       E                     dE             d eps       ncg     rms          rms(c)
DAV:   1    -0.129197304159E+03    0.10312E-03   -0.66652E-02   329   0.133E+00    0.525E-02
DAV:   2    -0.129197395168E+03   -0.91009E-04   -0.12315E-03   348   0.160E-01    0.337E-02
DAV:   3    -0.129197397252E+03   -0.20840E-05   -0.24848E-05   220   0.282E-02    0.184E-02
DAV:   4    -0.129197407502E+03   -0.10250E-04   -0.26331E-05   300   0.250E-02    0.408E-03
DAV:   5    -0.129197407676E+03   -0.17367E-06   -0.39012E-06   222   0.105E-02    0.292E-03
DAV:   6    -0.129197407931E+03   -0.25504E-06   -0.63354E-07   208   0.430E-03
  85 F= -.12919741E+03 E0= -.12919741E+03  d E =-.411900E-06
damped:  g(F)=  0.000E+00 g(S)=  0.000E+00 dE (1.order)= 0.000E+00
 bond charge predicted
       N       E                     dE             d eps       ncg     rms          rms(c)
DAV:   1    -0.129197248238E+03    0.15944E-03   -0.97101E-02   329   0.161E+00    0.633E-02
DAV:   2    -0.129197381927E+03   -0.13369E-03   -0.17985E-03   363   0.194E-01    0.407E-02
DAV:   3    -0.129197384197E+03   -0.22692E-05   -0.35225E-05   203   0.338E-02    0.223E-02
DAV:   4    -0.129197398991E+03   -0.14794E-04   -0.37914E-05   299   0.303E-02    0.483E-03
DAV:   5    -0.129197399273E+03   -0.28207E-06   -0.57395E-06   238   0.127E-02    0.350E-03
DAV:   6    -0.129197399638E+03   -0.36499E-06   -0.94612E-07   216   0.522E-03
  86 F= -.12919740E+03 E0= -.12919740E+03  d E =0.829320E-05
damped:  g(F)=  0.000E+00 g(S)=  0.000E+00 dE (1.order)= 0.000E+00
 bond charge predicted
       N       E                     dE             d eps       ncg     rms          rms(c)
DAV:   1    -0.129197150554E+03    0.24872E-03   -0.14085E-01   329   0.194E+00    0.764E-02
DAV:   2    -0.129197347118E+03   -0.19656E-03   -0.26273E-03   346   0.234E-01    0.491E-02
DAV:   3    -0.129197350698E+03   -0.35799E-05   -0.60167E-05   241   0.409E-02    0.267E-02
DAV:   4    -0.129197371082E+03   -0.20384E-04   -0.39191E-05   300   0.341E-02    0.505E-03
DAV:   5    -0.129197371624E+03   -0.54233E-06   -0.75301E-06   239   0.145E-02    0.366E-03
DAV:   6    -0.129197372145E+03   -0.52088E-06   -0.11282E-06   208   0.569E-03
  87 F= -.12919737E+03 E0= -.12919737E+03  d E =0.274927E-04
damped:  g(F)=  0.000E+00 g(S)=  0.000E+00 dE (1.order)= 0.000E+00
 bond charge predicted
       N       E                     dE             d eps       ncg     rms          rms(c)
DAV:   1    -0.129196991228E+03    0.38040E-03   -0.20460E-01   328   0.234E+00    0.921E-02
DAV:   2    -0.129197280281E+03   -0.28905E-03   -0.38430E-03   354   0.283E-01    0.592E-02
DAV:   3    -0.129197284831E+03   -0.45502E-05   -0.91096E-05   273   0.494E-02    0.324E-02
DAV:   4    -0.129197313912E+03   -0.29081E-04   -0.54809E-05   300   0.414E-02    0.603E-03
DAV:   5    -0.129197314698E+03   -0.78547E-06   -0.11427E-05   239   0.180E-02    0.424E-03
DAV:   6    -0.129197315446E+03   -0.74794E-06   -0.16192E-06   224   0.673E-03
  88 F= -.12919732E+03 E0= -.12919732E+03  d E =0.566997E-04
damped:  g(F)=  0.000E+00 g(S)=  0.000E+00 dE (1.order)= 0.000E+00
 bond charge predicted
       N       E                     dE             d eps       ncg     rms          rms(c)
DAV:   1    -0.129196742848E+03    0.57185E-03   -0.29760E-01   328   0.282E+00    0.111E-01
DAV:   2    -0.129197167593E+03   -0.42474E-03   -0.56177E-03   363   0.342E-01    0.713E-02
DAV:   3    -0.129197173768E+03   -0.61753E-05   -0.13129E-04   265   0.592E-02    0.390E-02
DAV:   4    -0.129197215367E+03   -0.41598E-04   -0.79307E-05   300   0.501E-02    0.714E-03
DAV:   5    -0.129197216609E+03   -0.12425E-05   -0.16605E-05   256   0.216E-02    0.511E-03
DAV:   6    -0.129197217724E+03   -0.11145E-05   -0.23822E-06   228   0.826E-03
  89 F= -.12919722E+03 E0= -.12919722E+03  d E =0.977221E-04
damped:  g(F)=  0.000E+00 g(S)=  0.000E+00 dE (1.order)= 0.000E+00
 bond charge predicted
       N       E                     dE             d eps       ncg     rms          rms(c)
DAV:   1    -0.129196375529E+03    0.84108E-03   -0.42324E-01   328   0.336E+00    0.133E-01
DAV:   2    -0.129196987960E+03   -0.61243E-03   -0.80801E-03   330   0.409E-01    0.856E-02
DAV:   3    -0.129196995425E+03   -0.74648E-05   -0.19033E-04   366   0.718E-02    0.471E-02
DAV:   4    -0.129197053099E+03   -0.57674E-04   -0.11483E-04   332   0.601E-02    0.878E-03
DAV:   5    -0.129197054658E+03   -0.15591E-05   -0.24034E-05   248   0.259E-02    0.605E-03
DAV:   6    -0.129197056147E+03   -0.14890E-05   -0.36595E-06   280   0.943E-03
  90 F= -.12919706E+03 E0= -.12919706E+03  d E =0.161577E-03
damped:  g(F)=  0.000E+00 g(S)=  0.000E+00 dE (1.order)= 0.000E+00
 bond charge predicted
       N       E                     dE             d eps       ncg     rms          rms(c)
DAV:   1    -0.129195680445E+03    0.13742E-02   -0.61634E-01   328   0.407E+00    0.161E-01
DAV:   2    -0.129196607515E+03   -0.92707E-03   -0.12217E-02   364   0.504E-01    0.104E-01
DAV:   3    -0.129196610025E+03   -0.25100E-05   -0.28142E-04   335   0.870E-02    0.580E-02
DAV:   4    -0.129196690148E+03   -0.80123E-04   -0.17812E-04   332   0.763E-02    0.100E-02
DAV:   5    -0.129196693827E+03   -0.36789E-05   -0.37728E-05   272   0.322E-02    0.748E-03
DAV:   6    -0.129196696582E+03   -0.27549E-05   -0.53650E-06   272   0.122E-02
  91 F= -.12919670E+03 E0= -.12919670E+03  d E =0.359565E-03
damped:  g(F)=  0.000E+00 g(S)=  0.000E+00 dE (1.order)= 0.000E+00
 bond charge predicted
       N       E                     dE             d eps       ncg     rms          rms(c)
DAV:   1    -0.129193355179E+03    0.33386E-02   -0.90728E-01   329   0.500E+00    0.213E-01
DAV:   2    -0.129195055502E+03   -0.17003E-02   -0.23133E-02   362   0.697E-01    0.144E-01
DAV:   3    -0.129194923389E+03    0.13211E-03   -0.55371E-04   464   0.132E-01    0.859E-02
DAV:   4    -0.129194965971E+03   -0.42582E-04   -0.37477E-04   419   0.105E-01    0.174E-02
DAV:   5    -0.129194968326E+03   -0.23554E-05   -0.67631E-05   368   0.432E-02    0.107E-02
DAV:   6    -0.129194971468E+03   -0.31419E-05   -0.81519E-06   368   0.152E-02
  92 F= -.12919497E+03 E0= -.12919497E+03  d E =0.172511E-02
damped:  g(F)=  0.000E+00 g(S)=  0.000E+00 dE (1.order)= 0.000E+00
 bond charge predicted
       N       E                     dE             d eps       ncg     rms          rms(c)
DAV:   1    -0.129196188436E+03   -0.12201E-02   -0.12158E-01   332   0.183E+00    0.118E-01
DAV:   2    -0.129196585731E+03   -0.39730E-03   -0.57885E-03   427   0.350E-01    0.704E-02
DAV:   3    -0.129196524291E+03    0.61441E-04   -0.16890E-04   400   0.747E-02    0.414E-02
DAV:   4    -0.129196501100E+03    0.23191E-04   -0.12670E-04   328   0.609E-02    0.905E-03
DAV:   5    -0.129196499958E+03    0.11422E-05   -0.27204E-05   368   0.272E-02    0.514E-03
DAV:   6    -0.129196500098E+03   -0.14067E-06   -0.31376E-06   336   0.971E-03
  93 F= -.12919650E+03 E0= -.12919650E+03  d E =-.152863E-02
damped:  g(F)=  0.000E+00 g(S)=  0.000E+00 dE (1.order)= 0.000E+00
 bond charge predicted
       N       E                     dE             d eps       ncg     rms          rms(c)
DAV:   1    -0.129196506835E+03   -0.68771E-05   -0.10372E-04   349   0.534E-02    0.331E-03
DAV:   2    -0.129196509670E+03   -0.28353E-05   -0.47740E-06   352   0.115E-02    0.192E-03
DAV:   3    -0.129196512192E+03   -0.25218E-05   -0.56542E-07   245   0.401E-03    0.111E-03
DAV:   4    -0.129196515697E+03   -0.35055E-05   -0.25134E-07   310   0.234E-03    0.385E-04
DAV:   5    -0.129196517834E+03   -0.21370E-05   -0.84021E-08   272   0.125E-03    0.236E-04
DAV:   6    -0.129196519677E+03   -0.18428E-05   -0.70164E-08   267   0.905E-04
  94 F= -.12919652E+03 E0= -.12919652E+03  d E =-.195788E-04
damped:  g(F)=  0.000E+00 g(S)=  0.000E+00 dE (1.order)= 0.000E+00
 bond charge predicted
       N       E                     dE             d eps       ncg     rms          rms(c)
DAV:   1    -0.129196525441E+03   -0.76067E-05   -0.34722E-04   379   0.991E-02    0.506E-03
DAV:   2    -0.129196527134E+03   -0.16929E-05   -0.14630E-05   272   0.191E-02    0.328E-03
DAV:   3    -0.129196527636E+03   -0.50182E-06   -0.14393E-06   222   0.631E-03    0.212E-03
DAV:   4    -0.129196528452E+03   -0.81669E-06   -0.52539E-07   295   0.393E-03    0.681E-04
DAV:   5    -0.129196528748E+03   -0.29579E-06   -0.79897E-08   272   0.183E-03    0.350E-04
DAV:   6    -0.129196529093E+03   -0.34448E-06   -0.79130E-09   206   0.101E-03
  95 F= -.12919653E+03 E0= -.12919653E+03  d E =-.941559E-05
damped:  g(F)=  0.000E+00 g(S)=  0.000E+00 dE (1.order)= 0.000E+00
 bond charge predicted
       N       E                     dE             d eps       ncg     rms          rms(c)
DAV:   1    -0.129196520336E+03    0.84119E-05   -0.50942E-04   352   0.121E-01    0.574E-03
DAV:   2    -0.129196521863E+03   -0.15263E-05   -0.20674E-05   204   0.228E-02    0.380E-03
DAV:   3    -0.129196521916E+03   -0.53326E-07   -0.22495E-06   272   0.778E-03    0.242E-03
DAV:   4    -0.129196521890E+03    0.25729E-07   -0.84539E-07   268   0.462E-03    0.805E-04
DAV:   5    -0.129196521902E+03   -0.12240E-07   -0.12177E-07   272   0.222E-03    0.428E-04
DAV:   6    -0.129196521971E+03   -0.68720E-07   -0.32212E-08   223   0.130E-03
  96 F= -.12919652E+03 E0= -.12919652E+03  d E =0.712157E-05
damped:  g(F)=  0.000E+00 g(S)=  0.000E+00 dE (1.order)= 0.000E+00
 bond charge predicted
       N       E                     dE             d eps       ncg     rms          rms(c)
DAV:   1    -0.129196504005E+03    0.17898E-04   -0.51598E-04   368   0.121E-01    0.514E-03
DAV:   2    -0.129196505082E+03   -0.10773E-05   -0.16303E-05   231   0.204E-02    0.340E-03
DAV:   3    -0.129196505094E+03   -0.12231E-07   -0.17831E-06   230   0.700E-03    0.212E-03
DAV:   4    -0.129196505067E+03    0.27626E-07   -0.54301E-07   224   0.402E-03    0.573E-04
DAV:   5    -0.129196505106E+03   -0.39225E-07   -0.12634E-07   171   0.204E-03    0.341E-04
DAV:   6    -0.129196505194E+03   -0.87788E-07   -0.31927E-08   222   0.114E-03
  97 F= -.12919651E+03 E0= -.12919651E+03  d E =0.167776E-04
damped:  g(F)=  0.000E+00 g(S)=  0.000E+00 dE (1.order)= 0.000E+00
 bond charge predicted
       N       E                     dE             d eps       ncg     rms          rms(c)
DAV:   1    -0.129196488335E+03    0.16771E-04   -0.55597E-04   316   0.123E-01    0.489E-03
DAV:   2    -0.129196489279E+03   -0.94439E-06   -0.12092E-05   168   0.176E-02    0.303E-03
DAV:   3    -0.129196489473E+03   -0.19446E-06   -0.12751E-06   165   0.607E-03    0.162E-03
DAV:   4    -0.129196489658E+03   -0.18443E-06   -0.32669E-07   238   0.305E-03    0.335E-04
DAV:   5    -0.129196489743E+03   -0.85681E-07   -0.82778E-08   202   0.158E-03    0.209E-04
DAV:   6    -0.129196489825E+03   -0.81637E-07   -0.14162E-08   214   0.783E-04
  98 F= -.12919649E+03 E0= -.12919649E+03  d E =0.153684E-04
damped:  g(F)=  0.000E+00 g(S)=  0.000E+00 dE (1.order)= 0.000E+00
 bond charge predicted
       N       E                     dE             d eps       ncg     rms          rms(c)
DAV:   1    -0.129196477384E+03    0.12359E-04   -0.81384E-04   338   0.149E-01    0.597E-03
DAV:   2    -0.129196478513E+03   -0.11284E-05   -0.15243E-05   254   0.188E-02    0.377E-03
DAV:   3    -0.129196478723E+03   -0.21046E-06   -0.15247E-06   240   0.627E-03    0.197E-03
DAV:   4    -0.129196478873E+03   -0.15052E-06   -0.41373E-07   254   0.328E-03    0.401E-04
DAV:   5    -0.129196478890E+03   -0.16421E-07   -0.11212E-07   184   0.165E-03    0.228E-04
DAV:   6    -0.129196478899E+03   -0.87721E-08   -0.23413E-08   171   0.829E-04
  99 F= -.12919648E+03 E0= -.12919648E+03  d E =0.109264E-04
damped:  g(F)=  0.000E+00 g(S)=  0.000E+00 dE (1.order)= 0.000E+00
 bond charge predicted
       N       E                     dE             d eps       ncg     rms          rms(c)
DAV:   1    -0.129196461190E+03    0.17700E-04   -0.15395E-03   341   0.206E-01    0.855E-03
DAV:   2    -0.129196463398E+03   -0.22078E-05   -0.33700E-05   237   0.281E-02    0.551E-03
DAV:   3    -0.129196463539E+03   -0.14154E-06   -0.34703E-06   264   0.945E-03    0.301E-03
DAV:   4    -0.129196463602E+03   -0.62459E-07   -0.12868E-06   289   0.522E-03    0.814E-04
DAV:   5    -0.129196463567E+03    0.34549E-07   -0.15008E-07   240   0.244E-03    0.430E-04
DAV:   6    -0.129196463584E+03   -0.17168E-07   -0.17068E-08   196   0.128E-03
 100 F= -.12919646E+03 E0= -.12919646E+03  d E =0.153143E-04
damped:  g(F)=  0.000E+00 g(S)=  0.000E+00 dE (1.order)= 0.000E+00
 bond charge predicted
       N       E                     dE             d eps       ncg     rms          rms(c)
DAV:   1    -0.129196429843E+03    0.33725E-04   -0.24648E-03   330   0.260E-01    0.106E-02
DAV:   2    -0.129196433128E+03   -0.32855E-05   -0.51417E-05   203   0.346E-02    0.684E-03
DAV:   3    -0.129196433347E+03   -0.21863E-06   -0.52284E-06   272   0.116E-02    0.369E-03
DAV:   4    -0.129196433517E+03   -0.16974E-06   -0.14966E-06   202   0.632E-03    0.824E-04
DAV:   5    -0.129196433561E+03   -0.44338E-07   -0.41696E-07   199   0.321E-03    0.455E-04
DAV:   6    -0.129196433644E+03   -0.82937E-07   -0.11688E-07   200   0.165E-03
 101 F= -.12919643E+03 E0= -.12919643E+03  d E =0.299406E-04
damped:  g(F)=  0.000E+00 g(S)=  0.000E+00 dE (1.order)= 0.000E+00
 bond charge predicted
       N       E                     dE             d eps       ncg     rms          rms(c)
DAV:   1    -0.129196390697E+03    0.42864E-04   -0.34681E-03   331   0.305E-01    0.122E-02
DAV:   2    -0.129196395197E+03   -0.44996E-05   -0.62745E-05   252   0.373E-02    0.766E-03
DAV:   3    -0.129196395729E+03   -0.53250E-06   -0.43330E-06   174   0.970E-03    0.401E-03
DAV:   4    -0.129196396396E+03   -0.66708E-06   -0.16456E-06   226   0.607E-03    0.722E-04
DAV:   5    -0.129196396550E+03   -0.15376E-06   -0.48470E-07   200   0.304E-03    0.419E-04
DAV:   6    -0.129196396666E+03   -0.11566E-06   -0.13641E-07   224   0.142E-03
 102 F= -.12919640E+03 E0= -.12919640E+03  d E =0.369779E-04
damped:  g(F)=  0.000E+00 g(S)=  0.000E+00 dE (1.order)= 0.000E+00
 bond charge predicted
       N       E                     dE             d eps       ncg     rms          rms(c)
DAV:   1    -0.129196350160E+03    0.46390E-04   -0.54422E-03   333   0.383E-01    0.154E-02
DAV:   2    -0.129196357730E+03   -0.75700E-05   -0.10312E-04   284   0.476E-02    0.981E-03
DAV:   3    -0.129196358370E+03   -0.63989E-06   -0.64432E-06   272   0.121E-02    0.525E-03
DAV:   4    -0.129196359348E+03   -0.97860E-06   -0.33849E-06   259   0.796E-03    0.120E-03
DAV:   5    -0.129196359398E+03   -0.49928E-07   -0.43728E-07   264   0.361E-03    0.655E-04
DAV:   6    -0.129196359447E+03   -0.49259E-07   -0.79215E-08   177   0.157E-03
 103 F= -.12919636E+03 E0= -.12919636E+03  d E =0.372185E-04
damped:  g(F)=  0.000E+00 g(S)=  0.000E+00 dE (1.order)= 0.000E+00
 bond charge predicted
       N       E                     dE             d eps       ncg     rms          rms(c)
DAV:   1    -0.129196287648E+03    0.71750E-04   -0.88764E-03   327   0.490E-01    0.199E-02
DAV:   2    -0.129196299817E+03   -0.12169E-04   -0.17299E-04   244   0.622E-02    0.127E-02
DAV:   3    -0.129196300454E+03   -0.63784E-06   -0.12035E-05   272   0.164E-02    0.698E-03
DAV:   4    -0.129196301554E+03   -0.10999E-05   -0.54801E-06   220   0.109E-02    0.152E-03
DAV:   5    -0.129196301644E+03   -0.90080E-07   -0.13153E-06   272   0.538E-03    0.901E-04
DAV:   6    -0.129196301757E+03   -0.11282E-06   -0.39535E-07   208   0.256E-03
 104 F= -.12919630E+03 E0= -.12919630E+03  d E =0.576903E-04
damped:  g(F)=  0.000E+00 g(S)=  0.000E+00 dE (1.order)= 0.000E+00
 bond charge predicted
       N       E                     dE             d eps       ncg     rms          rms(c)
DAV:   1    -0.129196209853E+03    0.91792E-04   -0.13379E-02   334   0.599E-01    0.239E-02
DAV:   2    -0.129196228145E+03   -0.18292E-04   -0.24803E-04   301   0.725E-02    0.151E-02
DAV:   3    -0.129196229354E+03   -0.12089E-05   -0.11199E-05   221   0.170E-02    0.794E-03
DAV:   4    -0.129196231469E+03   -0.21147E-05   -0.46948E-06   252   0.115E-02    0.135E-03
DAV:   5    -0.129196231679E+03   -0.21024E-06   -0.12521E-06   203   0.528E-03    0.954E-04
DAV:   6    -0.129196231860E+03   -0.18090E-06   -0.30174E-07   262   0.240E-03
 105 F= -.12919623E+03 E0= -.12919623E+03  d E =0.698973E-04
damped:  g(F)=  0.000E+00 g(S)=  0.000E+00 dE (1.order)= 0.000E+00
 bond charge predicted
       N       E                     dE             d eps       ncg     rms          rms(c)
DAV:   1    -0.129196112110E+03    0.11957E-03   -0.21614E-02   330   0.762E-01    0.305E-02
DAV:   2    -0.129196144604E+03   -0.32493E-04   -0.43858E-04   372   0.948E-02    0.198E-02
DAV:   3    -0.129196144678E+03   -0.73937E-07   -0.10150E-05   248   0.183E-02    0.108E-02
DAV:   4    -0.129196147618E+03   -0.29404E-05   -0.79824E-06   265   0.148E-02    0.209E-03
DAV:   5    -0.129196147725E+03   -0.10673E-06   -0.14361E-06   272   0.671E-03    0.114E-03
DAV:   6    -0.129196147832E+03   -0.10677E-06   -0.18377E-07   224   0.247E-03
 106 F= -.12919615E+03 E0= -.12919615E+03  d E =0.840283E-04
damped:  g(F)=  0.000E+00 g(S)=  0.000E+00 dE (1.order)= 0.000E+00
 reached required accuracy - stopping structural energy minimisation
