unknown system                          
           1
    30.000000    0.000000    0.000000
     0.000000   30.000000    0.000000
     0.000000    0.000000   30.000000
   H    C    N    O 
  12   6   2   2
Direct configuration=     1
   0.37502854  0.53555336  0.49740999
   0.38045770  0.47926000  0.47945346
   0.37883768  0.49168225  0.53733781
   0.44932737  0.44786260  0.52197527
   0.52312238  0.44869106  0.54396571
   0.55615439  0.41551883  0.47765818
   0.51458441  0.43877529  0.44245482
   0.49922002  0.39864840  0.48360876
   0.51074521  0.55267124  0.50796395
   0.60513869  0.57587498  0.52376508
   0.59154227  0.57224490  0.46622617
   0.56111721  0.60922290  0.50141886
   0.39095730  0.50360036  0.50486723
   0.44112951  0.51168980  0.50396462
   0.51514890  0.46387804  0.51126135
   0.52143963  0.42689303  0.47640088
   0.55248305  0.49918304  0.50485861
   0.57736935  0.57653563  0.49985098
   0.46705652  0.47574747  0.51440719
   0.54380519  0.54301136  0.50993981
   0.45525390  0.54946656  0.49436186
   0.59008067  0.48399007  0.49685144
Direct configuration=     2
   0.37497813  0.53559436  0.49743241
   0.38053429  0.47928201  0.47947731
   0.37889849  0.49165488  0.53738771
   0.44919827  0.44785330  0.52193101
   0.52314018  0.44882389  0.54393319
   0.55614408  0.41548421  0.47769620
   0.51455089  0.43877524  0.44246754
   0.49921718  0.39860008  0.48365614
   0.51068746  0.55260351  0.50796987
   0.60512838  0.57581109  0.52375319
   0.59149228  0.57221815  0.46624692
   0.56112927  0.60927434  0.50150716
   0.39100094  0.50354060  0.50480362
   0.44112684  0.51169268  0.50396975
   0.51512527  0.46394058  0.51130106
   0.52141504  0.42687956  0.47641995
   0.55250824  0.49920083  0.50477067
   0.57741250  0.57653599  0.49985975
   0.46706079  0.47570385  0.51435445
   0.54380524  0.54296430  0.50988450
   0.45529824  0.54945811  0.49436877
   0.59014789  0.48410958  0.49681081
Direct configuration=     3
   0.37492894  0.53560136  0.49747159
   0.38063141  0.47927180  0.47947136
   0.37900135  0.49162299  0.53742356
   0.44903407  0.44785790  0.52186382
   0.52317408  0.44900175  0.54391984
   0.55611921  0.41543962  0.47774606
   0.51450041  0.43877867  0.44249011
   0.49921405  0.39853912  0.48371899
   0.51062805  0.55249934  0.50797395
   0.60513175  0.57571584  0.52375431
   0.59143502  0.57217765  0.46626099
   0.56116173  0.60932130  0.50162809
   0.39103137  0.50354060  0.50478852
   0.44115583  0.51168245  0.50396751
   0.51510528  0.46400511  0.51129768
   0.52138724  0.42686515  0.47646129
   0.55253974  0.49921942  0.50466016
   0.57741325  0.57654967  0.49987650
   0.46701697  0.47565268  0.51428860
   0.54378139  0.54295542  0.50980172
   0.45535385  0.54944208  0.49438201
   0.59025492  0.48426120  0.49675532
Direct configuration=     4
   0.37488821  0.53556366  0.49752571
   0.38074210  0.47922568  0.47943461
   0.37914413  0.49159027  0.53743455
   0.44885366  0.44787807  0.52177970
   0.52322431  0.44920780  0.54393913
   0.55607610  0.41539247  0.47779918
   0.51443517  0.43878737  0.44252918
   0.49921201  0.39847959  0.48378723
   0.51056852  0.55237009  0.50796789
   0.60514652  0.57559308  0.52377296
   0.59138198  0.57212624  0.46626533
   0.56121621  0.60935596  0.50176670
   0.39104401  0.50360576  0.50483618
   0.44120361  0.51166717  0.50395349
   0.51509485  0.46404562  0.51123252
   0.52135686  0.42685053  0.47651737
   0.55258410  0.49925431  0.50454514
   0.57735962  0.57657374  0.49990098
   0.46693006  0.47560284  0.51421864
   0.54373498  0.54298699  0.50969612
   0.45541855  0.54941873  0.49439833
   0.59038437  0.48442511  0.49670103
Direct configuration=     5
   0.37484516  0.53550377  0.49758992
   0.38087416  0.47917223  0.47940119
   0.37931946  0.49155305  0.53743641
   0.44866304  0.44790428  0.52168669
   0.52328698  0.44943779  0.54398441
   0.55601428  0.41534852  0.47784614
   0.51435550  0.43880318  0.44259363
   0.49921086  0.39843505  0.48385098
   0.51048890  0.55223265  0.50793786
   0.60515029  0.57544333  0.52380224
   0.59133837  0.57206806  0.46627090
   0.56128622  0.60939023  0.50190977
   0.39105883  0.50367314  0.50490373
   0.44122648  0.51166736  0.50392840
   0.51509425  0.46404613  0.51112842
   0.52131841  0.42683177  0.47656576
   0.55265089  0.49933093  0.50443612
   0.57728450  0.57659161  0.49993015
   0.46684357  0.47555920  0.51414674
   0.54368069  0.54302430  0.50957257
   0.45549975  0.54939395  0.49440808
   0.59050934  0.48459054  0.49667183
Direct configuration=     6
   0.37478399  0.53545879  0.49765556
   0.38102992  0.47914812  0.47941174
   0.37950565  0.49150426  0.53746114
   0.44847525  0.44792640  0.52159574
   0.52335179  0.44968126  0.54402749
   0.55594387  0.41531113  0.47787656
   0.51426418  0.43882764  0.44267517
   0.49920533  0.39841017  0.48390128
   0.51037617  0.55210728  0.50787398
   0.60511681  0.57527516  0.52382887
   0.59130507  0.57201192  0.46629473
   0.56135757  0.60944034  0.50204133
   0.39109999  0.50366938  0.50492160
   0.44120512  0.51168895  0.50390202
   0.51510271  0.46402604  0.51104746
   0.52127181  0.42680476  0.47658709
   0.55272332  0.49942926  0.50434135
   0.57724589  0.57658842  0.49995537
   0.46679796  0.47552594  0.51407262
   0.54362779  0.54304124  0.50944497
   0.45559438  0.54937916  0.49440011
   0.59061536  0.48474543  0.49668574
Direct configuration=     7
   0.37469692  0.53542283  0.49772751
   0.38121668  0.47914774  0.47946907
   0.37971207  0.49143325  0.53752352
   0.44829861  0.44795390  0.52150131
   0.52341988  0.44994815  0.54405759
   0.55586929  0.41527711  0.47788054
   0.51414922  0.43886873  0.44276114
   0.49918336  0.39839947  0.48393615
   0.51022437  0.55199346  0.50775640
   0.60503314  0.57507385  0.52385703
   0.59128623  0.57195988  0.46634529
   0.56143641  0.60950725  0.50216049
   0.39116889  0.50360010  0.50488041
   0.44118128  0.51172318  0.50387528
   0.51512372  0.46401998  0.51102282
   0.52122071  0.42677067  0.47658786
   0.55277275  0.49950447  0.50426130
   0.57725616  0.57656982  0.49997208
   0.46678110  0.47550529  0.51399014
   0.54355766  0.54305382  0.50931144
   0.45569070  0.54937648  0.49436674
   0.59072081  0.48489159  0.49675778
Direct configuration=     8
   0.37460266  0.53534944  0.49780981
   0.38140689  0.47911256  0.47951869
   0.37994435  0.49134168  0.53759693
   0.44817697  0.44800723  0.52140112
   0.52349244  0.45020877  0.54409067
   0.55580634  0.41524348  0.47784203
   0.51400505  0.43893405  0.44282237
   0.49912845  0.39839387  0.48395133
   0.51005759  0.55190303  0.50756742
   0.60491968  0.57483671  0.52391161
   0.59130213  0.57191883  0.46640607
   0.56153874  0.60956066  0.50225302
   0.39123832  0.50356755  0.50486658
   0.44123711  0.51174949  0.50383960
   0.51515130  0.46406328  0.51104007
   0.52117686  0.42675047  0.47660281
   0.55277137  0.49951360  0.50421165
   0.57725859  0.57656533  0.49997962
   0.46675965  0.47550251  0.51390817
   0.54345112  0.54308254  0.50917597
   0.45575172  0.54938556  0.49430622
   0.59082262  0.48501036  0.49690013
Direct configuration=     9
   0.37451330  0.53522120  0.49790184
   0.38157659  0.47900565  0.47952358
   0.38020591  0.49123634  0.53764857
   0.44813574  0.44808414  0.52129558
   0.52356894  0.45042942  0.54415829
   0.55576789  0.41520731  0.47775227
   0.51383571  0.43901827  0.44285830
   0.49903622  0.39839371  0.48394996
   0.50989716  0.55185383  0.50729485
   0.60480278  0.57456532  0.52401370
   0.59136966  0.57189757  0.46645312
   0.56167127  0.60958799  0.50231223
   0.39130811  0.50361191  0.50495556
   0.44135160  0.51176811  0.50378565
   0.51516023  0.46413926  0.51104861
   0.52113698  0.42677209  0.47665225
   0.55273967  0.49951558  0.50420530
   0.57719206  0.57656777  0.49998921
   0.46676721  0.47552248  0.51383767
   0.54331906  0.54309164  0.50903256
   0.45576820  0.54942441  0.49421400
   0.59087566  0.48508700  0.49711880
Direct configuration=    10
   0.37441300  0.53509205  0.49799965
   0.38173679  0.47889497  0.47955532
   0.38048213  0.49110988  0.53770475
   0.44818630  0.44815917  0.52118657
   0.52363474  0.45059408  0.54425617
   0.55574589  0.41517575  0.47760886
   0.51365449  0.43909978  0.44291019
   0.49892298  0.39842750  0.48394104
   0.50975637  0.55186363  0.50692304
   0.60466295  0.57426534  0.52414737
   0.59148442  0.57191537  0.46649647
   0.56180876  0.60962318  0.50234279
   0.39142360  0.50358270  0.50505385
   0.44141185  0.51182748  0.50371794
   0.51514522  0.46418748  0.51105482
   0.52108568  0.42682954  0.47669525
   0.55269985  0.49957894  0.50424770
   0.57710577  0.57649705  0.50001464
   0.46687532  0.47558694  0.51378071
   0.54317141  0.54307728  0.50886963
   0.45575480  0.54951007  0.49407707
   0.59083763  0.48510281  0.49741807
Direct configuration=    11
   0.37431941  0.53495513  0.49811613
   0.38190206  0.47884135  0.47968059
   0.38075544  0.49094414  0.53781316
   0.44835247  0.44824211  0.52106392
   0.52366656  0.45070425  0.54433544
   0.55569075  0.41516958  0.47742432
   0.51347299  0.43916154  0.44300414
   0.49882123  0.39853028  0.48394112
   0.50963681  0.55193379  0.50645150
   0.60446880  0.57394087  0.52428022
   0.59161596  0.57198347  0.46657721
   0.56193533  0.60965260  0.50236468
   0.39155525  0.50342262  0.50503133
   0.44144679  0.51194935  0.50364767
   0.51517943  0.46419524  0.51111835
   0.52104301  0.42685473  0.47668612
   0.55259085  0.49960449  0.50433410
   0.57710312  0.57636140  0.50004522
   0.46698228  0.47572938  0.51373883
   0.54300576  0.54315303  0.50867690
   0.45569253  0.54962149  0.49389838
   0.59076314  0.48505017  0.49777257
Direct configuration=    12
   0.37429175  0.53469739  0.49826975
   0.38202193  0.47870139  0.47975752
   0.38105239  0.49075209  0.53789273
   0.44862379  0.44835416  0.52092379
   0.52365298  0.45071972  0.54440947
   0.55559916  0.41518533  0.47720973
   0.51328492  0.43922484  0.44308448
   0.49873137  0.39867829  0.48397286
   0.50949680  0.55210043  0.50587287
   0.60427850  0.57358246  0.52445440
   0.59177163  0.57208316  0.46667958
   0.56209773  0.60956721  0.50239458
   0.39161118  0.50338842  0.50511624
   0.44150605  0.51203599  0.50356283
   0.51525676  0.46422521  0.51118309
   0.52102196  0.42685588  0.47668993
   0.55244804  0.49957405  0.50445364
   0.57711879  0.57637761  0.50004699
   0.46704777  0.47593565  0.51373277
   0.54288671  0.54318411  0.50843555
   0.45556132  0.54980005  0.49367546
   0.59063845  0.48497757  0.49818363
Direct configuration=    13
   0.37421732  0.53452178  0.49842686
   0.38210228  0.47852386  0.47983432
   0.38135377  0.49053488  0.53796864
   0.44887304  0.44844039  0.52080263
   0.52357903  0.45061531  0.54448078
   0.55556607  0.41518245  0.47698598
   0.51308980  0.43930954  0.44312097
   0.49861726  0.39878407  0.48406552
   0.50943406  0.55231825  0.50519531
   0.60412463  0.57322806  0.52467302
   0.59199308  0.57220122  0.46674376
   0.56220575  0.60955900  0.50246574
   0.39173496  0.50320026  0.50526997
   0.44148531  0.51229091  0.50342111
   0.51523437  0.46429421  0.51120726
   0.52093234  0.42700171  0.47671864
   0.55235443  0.49961714  0.50458052
   0.57719067  0.57626313  0.50007198
   0.46729853  0.47612128  0.51377279
   0.54268387  0.54322299  0.50810347
   0.45533901  0.54990537  0.49343234
   0.59059036  0.48486520  0.49866029
Direct configuration=    14
   0.37421645  0.53450840  0.49843579
   0.38210315  0.47852519  0.47984763
   0.38134953  0.49052019  0.53799638
   0.44887079  0.44845828  0.52080880
   0.52356994  0.45060199  0.54445821
   0.55554862  0.41519319  0.47698741
   0.51308465  0.43932233  0.44310986
   0.49862150  0.39878988  0.48406905
   0.50943204  0.55232282  0.50517625
   0.60413241  0.57322950  0.52468422
   0.59201060  0.57219528  0.46673934
   0.56220876  0.60955308  0.50247007
   0.39171939  0.50321254  0.50522830
   0.44149837  0.51216498  0.50345697
   0.51524834  0.46429825  0.51122896
   0.52094015  0.42699097  0.47670672
   0.55238033  0.49959090  0.50457779
   0.57717384  0.57626927  0.50007467
   0.46723569  0.47615559  0.51377475
   0.54271634  0.54323387  0.50808166
   0.45534848  0.54997787  0.49339926
   0.59059058  0.48488663  0.49868981
Direct configuration=    15
   0.37421223  0.53449238  0.49845076
   0.38209947  0.47852051  0.47986631
   0.38134386  0.49049634  0.53803391
   0.44886004  0.44848712  0.52082360
   0.52354936  0.45057173  0.54442087
   0.55552217  0.41521201  0.47699137
   0.51307524  0.43934634  0.44308995
   0.49862967  0.39879897  0.48407756
   0.50943267  0.55232958  0.50513607
   0.60414435  0.57323360  0.52470246
   0.59204492  0.57218635  0.46673531
   0.56221186  0.60954632  0.50248084
   0.39169653  0.50321761  0.50517963
   0.44152729  0.51207897  0.50348093
   0.51526402  0.46430962  0.51125588
   0.52094100  0.42698288  0.47668566
   0.55240871  0.49957490  0.50457863
   0.57716073  0.57627740  0.50007672
   0.46716168  0.47618074  0.51378860
   0.54276265  0.54323758  0.50803699
   0.45533152  0.55000663  0.49336472
   0.59061998  0.48491344  0.49874514
Direct configuration=    16
   0.37421079  0.53449401  0.49845121
   0.38209739  0.47851757  0.47986510
   0.38134449  0.49049616  0.53803109
   0.44885613  0.44848658  0.52082587
   0.52354722  0.45056776  0.54442056
   0.55552254  0.41521281  0.47699198
   0.51307463  0.43934778  0.44308902
   0.49863013  0.39879890  0.48407881
   0.50943561  0.55232913  0.50513199
   0.60414409  0.57323430  0.52470259
   0.59204767  0.57218678  0.46673674
   0.56221128  0.60954718  0.50248249
   0.39169758  0.50321290  0.50518688
   0.44152444  0.51210667  0.50347238
   0.51526102  0.46431094  0.51125222
   0.52093701  0.42698681  0.47668492
   0.55240744  0.49958139  0.50458017
   0.57716656  0.57627699  0.50007576
   0.46717210  0.47617291  0.51379211
   0.54275894  0.54323469  0.50803269
   0.45532452  0.54998669  0.49336805
   0.59062837  0.48491204  0.49874928
Direct configuration=    17
   0.37420794  0.53449675  0.49845229
   0.38209340  0.47851190  0.47986296
   0.38134572  0.49049555  0.53802610
   0.44884837  0.44848572  0.52083035
   0.52354305  0.45055989  0.54441961
   0.55552294  0.41521458  0.47699319
   0.51307335  0.43935067  0.44308703
   0.49863106  0.39879887  0.48408139
   0.50944148  0.55232831  0.50512379
   0.60414374  0.57323560  0.52470299
   0.59205331  0.57218767  0.46673943
   0.56221029  0.60954865  0.50248588
   0.39169929  0.50320427  0.50520027
   0.44151810  0.51215340  0.50345768
   0.51525546  0.46431334  0.51124540
   0.52092967  0.42699426  0.47668338
   0.55240631  0.49959246  0.50458294
   0.57717745  0.57627638  0.50007396
   0.46719070  0.47615984  0.51379854
   0.54275229  0.54322988  0.50802390
   0.45531246  0.54995289  0.49337298
   0.59064359  0.48491013  0.49875785
Direct configuration=    18
   0.37420355  0.53449951  0.49845457
   0.38208758  0.47850368  0.47986048
   0.38134743  0.49049379  0.53802017
   0.44883656  0.44848504  0.52083715
   0.52353678  0.45054776  0.54441707
   0.55552253  0.41521778  0.47699514
   0.51307112  0.43935522  0.44308359
   0.49863254  0.39879909  0.48408561
   0.50945058  0.55232725  0.50511081
   0.60414374  0.57323738  0.52470408
   0.59206255  0.57218913  0.46674315
   0.56220925  0.60955027  0.50249136
   0.39170080  0.50319314  0.50521771
   0.44150664  0.51220230  0.50344148
   0.51524811  0.46431636  0.51123612
   0.52091996  0.42700479  0.47668082
   0.55240841  0.49960436  0.50458640
   0.57719231  0.57627586  0.50007143
   0.46721337  0.47614653  0.51380701
   0.54274415  0.54322522  0.50800964
   0.45529885  0.54991686  0.49337595
   0.59066315  0.48490967  0.49877216
Direct configuration=    19
   0.37420329  0.53449927  0.49845488
   0.38208730  0.47850331  0.47986056
   0.38134748  0.49049344  0.53802030
   0.44883591  0.44848521  0.52083755
   0.52353641  0.45054700  0.54441660
   0.55552223  0.41521812  0.47699528
   0.51307091  0.43935553  0.44308327
   0.49863265  0.39879919  0.48408595
   0.50945110  0.55232726  0.50510989
   0.60414390  0.57323742  0.52470428
   0.59206330  0.57218926  0.46674327
   0.56220933  0.60955019  0.50249177
   0.39170055  0.50319301  0.50521789
   0.44150567  0.51219964  0.50344208
   0.51524802  0.46431638  0.51123589
   0.52091976  0.42700518  0.47668060
   0.55240942  0.49960383  0.50458643
   0.57719268  0.57627597  0.50007135
   0.46721312  0.47614737  0.51380719
   0.54274430  0.54322559  0.50800856
   0.45529917  0.54991857  0.49337499
   0.59066344  0.48491026  0.49877334
Direct configuration=    20
   0.37420277  0.53449881  0.49845551
   0.38208674  0.47850257  0.47986074
   0.38134757  0.49049275  0.53802056
   0.44883463  0.44848556  0.52083834
   0.52353567  0.45054548  0.54441565
   0.55552164  0.41521879  0.47699556
   0.51307049  0.43935614  0.44308263
   0.49863287  0.39879939  0.48408662
   0.50945214  0.55232726  0.50510803
   0.60414420  0.57323749  0.52470469
   0.59206479  0.57218951  0.46674350
   0.56220949  0.60955002  0.50249260
   0.39170005  0.50319275  0.50521825
   0.44150381  0.51219451  0.50344322
   0.51524783  0.46431642  0.51123542
   0.52091936  0.42700597  0.47668015
   0.55241142  0.49960282  0.50458649
   0.57719342  0.57627620  0.50007119
   0.46721263  0.47614901  0.51380756
   0.54274462  0.54322632  0.50800639
   0.45529976  0.54992182  0.49337309
   0.59066407  0.48491144  0.49877572
Direct configuration=    21
   0.37420200  0.53449810  0.49845646
   0.38208590  0.47850146  0.47986102
   0.38134770  0.49049170  0.53802095
   0.44883273  0.44848613  0.52083953
   0.52353456  0.45054318  0.54441422
   0.55552074  0.41521982  0.47699599
   0.51306984  0.43935707  0.44308166
   0.49863321  0.39879969  0.48408761
   0.50945366  0.55232727  0.50510522
   0.60414465  0.57323761  0.52470531
   0.59206705  0.57218989  0.46674384
   0.56220973  0.60954978  0.50249384
   0.39169929  0.50319231  0.50521878
   0.44150115  0.51218732  0.50344480
   0.51524756  0.46431649  0.51123472
   0.52091873  0.42700715  0.47667948
   0.55241431  0.49960141  0.50458660
   0.57719453  0.57627654  0.50007094
   0.46721189  0.47615132  0.51380817
   0.54274514  0.54322734  0.50800312
   0.45530047  0.54992628  0.49337033
   0.59066512  0.48491315  0.49877930
Direct configuration=    22
   0.37420096  0.53449716  0.49845774
   0.38208475  0.47849998  0.47986141
   0.38134786  0.49049027  0.53802150
   0.44883024  0.44848696  0.52084114
   0.52353303  0.45054008  0.54441228
   0.55551953  0.41522120  0.47699656
   0.51306897  0.43935833  0.44308036
   0.49863367  0.39880011  0.48408894
   0.50945562  0.55232730  0.50510139
   0.60414525  0.57323776  0.52470616
   0.59207012  0.57219041  0.46674430
   0.56221006  0.60954946  0.50249549
   0.39169823  0.50319166  0.50521950
   0.44149788  0.51217874  0.50344664
   0.51524721  0.46431661  0.51123379
   0.52091785  0.42700873  0.47667856
   0.55241794  0.49959976  0.50458681
   0.57719603  0.57627700  0.50007062
   0.46721092  0.47615413  0.51380906
   0.54274594  0.54322857  0.50799873
   0.45530111  0.54993145  0.49336682
   0.59066676  0.48491535  0.49878413
Direct configuration=    23
   0.37419967  0.53449598  0.49845936
   0.38208328  0.47849811  0.47986194
   0.38134804  0.49048845  0.53802220
   0.44882721  0.44848810  0.52084318
   0.52353108  0.45053615  0.54440981
   0.55551802  0.41522297  0.47699726
   0.51306787  0.43935992  0.44307871
   0.49863427  0.39880067  0.48409059
   0.50945797  0.55232736  0.50509648
   0.60414601  0.57323795  0.52470724
   0.59207404  0.57219109  0.46674488
   0.56221050  0.60954907  0.50249757
   0.39169686  0.50319072  0.50522040
   0.44149422  0.51216962  0.50344848
   0.51524681  0.46431682  0.51123263
   0.52091669  0.42701071  0.47667736
   0.55242214  0.49959809  0.50458715
   0.57719793  0.57627758  0.50007021
   0.46720970  0.47615721  0.51381032
   0.54274710  0.54322987  0.50799317
   0.45530138  0.54993662  0.49336272
   0.59066919  0.48491795  0.49879024
Direct configuration=    24
   0.37419812  0.53449455  0.49846134
   0.38208147  0.47849586  0.47986262
   0.38134821  0.49048621  0.53802308
   0.44882369  0.44848962  0.52084566
   0.52352868  0.45053137  0.54440681
   0.55551619  0.41522515  0.47699810
   0.51306652  0.43936186  0.44307671
   0.49863500  0.39880138  0.48409256
   0.50946064  0.55232747  0.50509045
   0.60414692  0.57323818  0.52470858
   0.59207883  0.57219194  0.46674558
   0.56221105  0.60954861  0.50250007
   0.39169515  0.50318942  0.50522148
   0.44149046  0.51216105  0.50345005
   0.51524638  0.46431714  0.51123125
   0.52091520  0.42701308  0.47667588
   0.55242667  0.49959662  0.50458769
   0.57720024  0.57627829  0.50006971
   0.46720825  0.47616026  0.51381201
   0.54274871  0.54323109  0.50798645
   0.45530099  0.54994100  0.49335821
   0.59067260  0.48492084  0.49879764
Direct configuration=    25
   0.37419614  0.53449272  0.49846390
   0.38207908  0.47849298  0.47986356
   0.38134839  0.49048329  0.53802427
   0.44881936  0.44849178  0.52084889
   0.52352554  0.45052519  0.54440290
   0.55551384  0.41522800  0.47699915
   0.51306475  0.43936438  0.44307412
   0.49863596  0.39880237  0.48409504
   0.50946385  0.55232766  0.50508252
   0.60414807  0.57323847  0.52471033
   0.59208512  0.57219309  0.46674648
   0.56221179  0.60954805  0.50250325
   0.39169286  0.50318753  0.50522283
   0.44148650  0.51215336  0.50345117
   0.51524588  0.46431766  0.51122952
   0.52091316  0.42701609  0.47667390
   0.55243178  0.49959550  0.50458855
   0.57720323  0.57627920  0.50006906
   0.46720644  0.47616326  0.51381443
   0.54275106  0.54323218  0.50797777
   0.45529948  0.54994406  0.49335302
   0.59067767  0.48492420  0.49880725
Direct configuration=    26
   0.37419367  0.53449042  0.49846715
   0.38207602  0.47848938  0.47986485
   0.38134853  0.49047953  0.53802582
   0.44881419  0.44849474  0.52085301
   0.52352154  0.45051738  0.54439793
   0.55551091  0.41523165  0.47700043
   0.51306250  0.43936757  0.44307085
   0.49863718  0.39880369  0.48409807
   0.50946760  0.55232794  0.50507235
   0.60414950  0.57323882  0.52471258
   0.59209317  0.57219461  0.46674761
   0.56221276  0.60954737  0.50250720
   0.39168991  0.50318487  0.50522450
   0.44148262  0.51214793  0.50345143
   0.51524533  0.46431845  0.51122741
   0.52091045  0.42701979  0.47667133
   0.55243730  0.49959503  0.50458985
   0.57720703  0.57628035  0.50006824
   0.46720425  0.47616585  0.51381778
   0.54275432  0.54323297  0.50796686
   0.45529634  0.54994470  0.49334724
   0.59068484  0.48492797  0.49881942
Direct configuration=    27
   0.37419061  0.53448756  0.49847120
   0.38207216  0.47848496  0.47986656
   0.38134862  0.49047481  0.53802786
   0.44880814  0.44849867  0.52085819
   0.52351653  0.45050769  0.54439173
   0.55550730  0.41523626  0.47700192
   0.51305966  0.43937153  0.44306680
   0.49863870  0.39880544  0.48410170
   0.50947192  0.55232834  0.50505952
   0.60415122  0.57323922  0.52471542
   0.59210329  0.57219662  0.46674901
   0.56221404  0.60954658  0.50251199
   0.39168618  0.50318124  0.50522648
   0.44147905  0.51214604  0.50345046
   0.51524470  0.46431959  0.51122494
   0.52090695  0.42702426  0.47666804
   0.55244315  0.49959549  0.50459172
   0.57721181  0.57628181  0.50006719
   0.46720167  0.47616770  0.51382227
   0.54275861  0.54323328  0.50795338
   0.45529108  0.54994186  0.49334091
   0.59069456  0.48493205  0.49883463
Direct configuration=    28
   0.37418682  0.53448400  0.49847623
   0.38206732  0.47847960  0.47986882
   0.38134861  0.49046889  0.53803050
   0.44880110  0.44850376  0.52086469
   0.52351038  0.45049578  0.54438406
   0.55550289  0.41524204  0.47700360
   0.51305610  0.43937640  0.44306183
   0.49864055  0.39880778  0.48410596
   0.50947695  0.55232886  0.50504343
   0.60415325  0.57323967  0.52471899
   0.59211599  0.57219926  0.46675072
   0.56221568  0.60954569  0.50251773
   0.39168156  0.50317645  0.50522879
   0.44147580  0.51214848  0.50344798
   0.51524397  0.46432118  0.51122209
   0.52090251  0.42702959  0.47666384
   0.55244939  0.49959706  0.50459432
   0.57721782  0.57628361  0.50006588
   0.46719870  0.47616862  0.51382812
   0.54276404  0.54323303  0.50793687
   0.45528329  0.54993485  0.49333387
   0.59070722  0.48493642  0.49885358
Direct configuration=    29
   0.37418203  0.53447952  0.49848248
   0.38206125  0.47847309  0.47987180
   0.38134848  0.49046146  0.53803396
   0.44879284  0.44851017  0.52087297
   0.52350289  0.45048113  0.54437455
   0.55549753  0.41524934  0.47700542
   0.51305160  0.43938240  0.44305570
   0.49864278  0.39881089  0.48411089
   0.50948299  0.55232951  0.50502321
   0.60415562  0.57324013  0.52472351
   0.59213197  0.57220279  0.46675283
   0.56221784  0.60954469  0.50252456
   0.39167594  0.50317027  0.50523147
   0.44147250  0.51215489  0.50344400
   0.51524306  0.46432331  0.51121885
   0.52089700  0.42703596  0.47665848
   0.55245645  0.49959965  0.50459786
   0.57722537  0.57628581  0.50006424
   0.46719534  0.47616876  0.51383557
   0.54277055  0.54323235  0.50791661
   0.45527284  0.54992378  0.49332556
   0.59072310  0.48494112  0.49887740
Direct configuration=    30
   0.37417585  0.53447376  0.49849031
   0.38205364  0.47846513  0.47987572
   0.38134821  0.49045209  0.53803850
   0.44878299  0.44851803  0.52088368
   0.52349387  0.45046308  0.54436275
   0.55549099  0.41525859  0.47700724
   0.51304585  0.43938980  0.44304812
   0.49864539  0.39881508  0.48411648
   0.50949057  0.55233023  0.50499766
   0.60415833  0.57324055  0.52472928
   0.59215223  0.57220758  0.46675546
   0.56222069  0.60954359  0.50253259
   0.39166919  0.50316256  0.50523455
   0.44146803  0.51216260  0.50343903
   0.51524180  0.46432608  0.51121523
   0.52089032  0.42704361  0.47665161
   0.55246525  0.49960264  0.50460258
   0.57723498  0.57628845  0.50006220
   0.46719158  0.47616895  0.51384478
   0.54277789  0.54323171  0.50789170
   0.45526022  0.54991054  0.49331471
   0.59074210  0.48494637  0.49890773
Direct configuration=    31
   0.37416782  0.53446633  0.49850003
   0.38204418  0.47845546  0.47988075
   0.38134781  0.49044043  0.53804433
   0.44877124  0.44852727  0.52089757
   0.52348333  0.45044105  0.54434834
   0.55548315  0.41527025  0.47700874
   0.51303852  0.43939887  0.44303881
   0.49864827  0.39882064  0.48412256
   0.50950028  0.55233097  0.50496563
   0.60416131  0.57324084  0.52473664
   0.59217775  0.57221402  0.46675874
   0.56222448  0.60954242  0.50254178
   0.39166122  0.50315334  0.50523827
   0.44146073  0.51216640  0.50343429
   0.51523997  0.46432945  0.51121128
   0.52088254  0.42705283  0.47664290
   0.55247709  0.49960485  0.50460875
   0.57724701  0.57629157  0.50005969
   0.46718741  0.47617078  0.51385569
   0.54278563  0.54323193  0.50786138
   0.45524672  0.54989896  0.49329948
   0.59076351  0.48495237  0.49894626
Direct configuration=    32
   0.37415750  0.53445680  0.49851192
   0.38203258  0.47844384  0.47988705
   0.38134731  0.49042615  0.53805162
   0.44875749  0.44853778  0.52091549
   0.52347137  0.45041456  0.54433113
   0.55547399  0.41528471  0.47700949
   0.51302926  0.43940985  0.44302751
   0.49865125  0.39882783  0.48412879
   0.50951243  0.55233169  0.50492596
   0.60416444  0.57324087  0.52474598
   0.59220949  0.57222252  0.46676278
   0.56222947  0.60954119  0.50255187
   0.39165202  0.50314270  0.50524284
   0.44144932  0.51216148  0.50343085
   0.51523741  0.46433331  0.51120705
   0.52087381  0.42706423  0.47663208
   0.55249282  0.49960524  0.50461678
   0.57726157  0.57629513  0.50005664
   0.46718271  0.47617580  0.51386824
   0.54279361  0.54323370  0.50782506
   0.45523358  0.54989253  0.49327806
   0.59078653  0.48495912  0.49899471
Direct configuration=    33
   0.37414430  0.53444458  0.49852641
   0.38201835  0.47842988  0.47989490
   0.38134676  0.49040878  0.53806054
   0.44874203  0.44854980  0.52093880
   0.52345814  0.45038282  0.54431088
   0.55546353  0.41530260  0.47700873
   0.51301757  0.43942318  0.44301381
   0.49865405  0.39883713  0.48413449
   0.50952690  0.55233247  0.50487667
   0.60416750  0.57324041  0.52475803
   0.59224898  0.57223371  0.46676784
   0.56223614  0.60953994  0.50256243
   0.39164119  0.50313030  0.50524873
   0.44143383  0.51214707  0.50342859
   0.51523410  0.46433765  0.51120245
   0.52086402  0.42707842  0.47661877
   0.55251222  0.49960370  0.50462751
   0.57727875  0.57629913  0.50005299
   0.46717720  0.47618472  0.51388283
   0.54280246  0.54323711  0.50778179
   0.45522068  0.54989149  0.49324890
   0.59081127  0.48496612  0.49905580
Direct configuration=    34
   0.37412752  0.53442892  0.49854412
   0.38200075  0.47841308  0.47990480
   0.38134619  0.49038769  0.53807136
   0.44872596  0.44856421  0.52096959
   0.52344377  0.45034476  0.54428740
   0.55545196  0.41532489  0.47700526
   0.51300272  0.43943964  0.44299711
   0.49865635  0.39884930  0.48413851
   0.50954279  0.55233357  0.50481476
   0.60417007  0.57323924  0.52477386
   0.59229846  0.57224844  0.46677434
   0.56224527  0.60953877  0.50257264
   0.39162771  0.50311532  0.50525692
   0.44141652  0.51213044  0.50342484
   0.51523023  0.46434260  0.51119733
   0.52085262  0.42709620  0.47660230
   0.55253319  0.49960199  0.50464256
   0.57729881  0.57630351  0.50004851
   0.46717051  0.47619618  0.51390069
   0.54281390  0.54324103  0.50773044
   0.45520534  0.54988958  0.49321130
   0.59083930  0.48497168  0.49913328
Direct configuration=    35
   0.37410659  0.53440932  0.49856545
   0.38197912  0.47839323  0.47991721
   0.38134554  0.49036243  0.53808430
   0.44871108  0.44858212  0.52100991
   0.52342860  0.45029976  0.54426079
   0.55543959  0.41535239  0.47699759
   0.51298404  0.43945995  0.44297695
   0.49865768  0.39886508  0.48413925
   0.50955888  0.55233522  0.50473760
   0.60417146  0.57323714  0.52479441