  22  22   0   0
  0.1227273E+04  0.3000000E-08  0.3000000E-08  0.3000000E-08  0.0000000E+00
  1.000000000000000E-004
  CAR 
 unknown system                          
      2.19755402    -28.24722845  301     -4.49950529      1.00000000
    -28.247  0.0000E+00  0.0000E+00
    -28.146  0.0000E+00  0.0000E+00
    -28.044  0.0000E+00  0.0000E+00
    -27.943  0.0000E+00  0.0000E+00
    -27.841  0.0000E+00  0.0000E+00
    -27.740  0.0000E+00  0.0000E+00
    -27.638  0.0000E+00  0.0000E+00
    -27.537  0.0000E+00  0.0000E+00
    -27.435  0.0000E+00  0.0000E+00
    -27.334  0.5069E-15  0.5144E-16
    -27.232  0.1064E-12  0.1085E-13
    -27.131  0.1349E-10  0.1380E-11
    -27.029  0.1032E-08  0.1061E-09
    -26.928  0.4768E-07  0.4944E-08
    -26.826  0.1333E-05  0.1402E-06
    -26.725  0.2258E-04  0.2431E-05
    -26.624  0.2322E-03  0.2599E-04
    -26.522  0.1452E-02  0.1733E-03
    -26.421  0.5531E-02  0.7346E-03
    -26.319  0.1285E-01  0.2038E-02
    -26.218  0.1822E-01  0.3887E-02
    -26.116  0.1577E-01  0.5487E-02
    -26.015  0.8342E-02  0.6334E-02
    -25.913  0.2762E-02  0.6614E-02
    -25.812  0.1126E-02  0.6729E-02
    -25.710  0.3006E-02  0.7034E-02
    -25.609  0.8836E-02  0.7930E-02
    -25.507  0.1617E-01  0.9571E-02
    -25.406  0.1807E-01  0.1141E-01
    -25.304  0.1233E-01  0.1266E-01
    -25.203  0.5139E-02  0.1318E-01
    -25.101  0.1305E-02  0.1331E-01
    -25.000  0.2020E-03  0.1333E-01
    -24.898  0.1900E-04  0.1333E-01
    -24.797  0.1085E-05  0.1333E-01
    -24.695  0.3754E-07  0.1333E-01
    -24.594  0.7858E-09  0.1333E-01
    -24.492  0.9960E-11  0.1333E-01
    -24.391  0.3742E-11  0.1333E-01
    -24.289  0.3229E-09  0.1333E-01
    -24.188  0.1718E-07  0.1333E-01
    -24.086  0.5524E-06  0.1333E-01
    -23.985  0.1076E-04  0.1333E-01
    -23.883  0.1272E-03  0.1335E-01
    -23.782  0.9143E-03  0.1344E-01
    -23.681  0.4000E-02  0.1385E-01
    -23.579  0.1067E-01  0.1493E-01
    -23.478  0.1736E-01  0.1669E-01
    -23.376  0.1726E-01  0.1844E-01
    -23.275  0.1047E-01  0.1950E-01
    -23.173  0.3881E-02  0.1990E-01
    -23.072  0.9242E-03  0.1999E-01
    -22.970  0.5512E-03  0.2005E-01
    -22.869  0.2322E-02  0.2028E-01
    -22.767  0.7561E-02  0.2105E-01
    -22.666  0.1508E-01  0.2258E-01
    -22.564  0.1836E-01  0.2445E-01
    -22.463  0.1366E-01  0.2583E-01
    -22.361  0.6198E-02  0.2646E-01
    -22.260  0.1716E-02  0.2663E-01
    -22.158  0.2894E-03  0.2666E-01
    -22.057  0.2968E-04  0.2667E-01
    -21.955  0.1849E-05  0.2667E-01
    -21.854  0.6979E-07  0.2667E-01
    -21.752  0.1594E-08  0.2667E-01
    -21.651  0.2200E-10  0.2667E-01
    -21.549  0.1832E-12  0.2667E-01
    -21.448  0.9190E-15  0.2667E-01
    -21.346  0.0000E+00  0.2667E-01
    -21.245  0.0000E+00  0.2667E-01
    -21.143  0.0000E+00  0.2667E-01
    -21.042  0.0000E+00  0.2667E-01
    -20.940  0.0000E+00  0.2667E-01
    -20.839  0.0000E+00  0.2667E-01
    -20.738  0.7293E-16  0.2667E-01
    -20.636  0.1807E-13  0.2667E-01
    -20.535  0.2724E-11  0.2667E-01
    -20.433  0.2477E-09  0.2667E-01
    -20.332  0.1359E-07  0.2667E-01
    -20.230  0.4512E-06  0.2667E-01
    -20.129  0.9070E-05  0.2667E-01
    -20.027  0.1106E-03  0.2668E-01
    -19.926  0.8200E-03  0.2676E-01
    -19.824  0.3700E-02  0.2714E-01
    -19.723  0.1018E-01  0.2817E-01
    -19.621  0.1709E-01  0.2990E-01
    -19.520  0.1751E-01  0.3168E-01
    -19.418  0.1096E-01  0.3279E-01
    -19.317  0.4186E-02  0.3322E-01
    -19.215  0.9748E-03  0.3332E-01
    -19.114  0.1382E-03  0.3333E-01
    -19.012  0.1192E-04  0.3333E-01
    -18.911  0.1084E-05  0.3333E-01
    -18.809  0.9261E-05  0.3333E-01
    -18.708  0.1123E-03  0.3335E-01
    -18.606  0.8299E-03  0.3343E-01
    -18.505  0.3732E-02  0.3381E-01
    -18.403  0.1023E-01  0.3485E-01
    -18.302  0.1712E-01  0.3658E-01
    -18.200  0.1749E-01  0.3836E-01
    -18.099  0.1091E-01  0.3947E-01
    -17.997  0.4152E-02  0.3989E-01
    -17.896  0.9650E-03  0.3999E-01
    -17.795  0.1604E-03  0.4000E-01
    -17.693  0.2579E-03  0.4003E-01
    -17.592  0.1519E-02  0.4018E-01
    -17.490  0.5702E-02  0.4076E-01
    -17.389  0.1306E-01  0.4209E-01
    -17.287  0.1826E-01  0.4394E-01
    -17.186  0.1559E-01  0.4552E-01
    -17.084  0.8129E-02  0.4635E-01
    -16.983  0.2585E-02  0.4661E-01
    -16.881  0.5010E-03  0.4666E-01
    -16.780  0.5934E-04  0.4667E-01
    -16.678  0.1001E-04  0.4667E-01
    -16.577  0.7662E-04  0.4668E-01
    -16.475  0.6139E-03  0.4674E-01
    -16.374  0.3001E-02  0.4704E-01
    -16.272  0.8940E-02  0.4795E-01
    -16.171  0.1625E-01  0.4960E-01
    -16.069  0.1804E-01  0.5143E-01
    -15.968  0.1222E-01  0.5267E-01
    -15.866  0.5056E-02  0.5318E-01
    -15.765  0.1275E-02  0.5331E-01
    -15.663  0.1959E-03  0.5333E-01
    -15.562  0.1829E-04  0.5333E-01
    -15.460  0.1075E-05  0.5333E-01
    -15.359  0.1122E-05  0.5333E-01
    -15.257  0.1902E-04  0.5334E-01
    -15.156  0.2021E-03  0.5336E-01
    -15.054  0.1306E-02  0.5349E-01
    -14.953  0.5140E-02  0.5401E-01
    -14.852  0.1234E-01  0.5526E-01
    -14.750  0.1807E-01  0.5710E-01
    -14.649  0.1617E-01  0.5874E-01
    -14.547  0.8829E-02  0.5963E-01
    -14.446  0.2945E-02  0.5993E-01
    -14.344  0.6419E-03  0.6000E-01
    -14.243  0.4734E-03  0.6004E-01
    -14.141  0.2191E-02  0.6027E-01
    -14.040  0.7287E-02  0.6101E-01
    -13.938  0.1482E-01  0.6251E-01
    -13.837  0.1839E-01  0.6438E-01
    -13.735  0.1397E-01  0.6579E-01
    -13.634  0.6684E-02  0.6647E-01
    -13.532  0.3274E-02  0.6680E-01
    -13.431  0.5847E-02  0.6740E-01
    -13.329  0.1288E-01  0.6871E-01
    -13.228  0.1822E-01  0.7055E-01
    -13.126  0.1577E-01  0.7215E-01
    -13.025  0.8342E-02  0.7300E-01
    -12.923  0.2807E-02  0.7329E-01
    -12.822  0.1404E-02  0.7343E-01
    -12.720  0.3942E-02  0.7383E-01
    -12.619  0.1048E-01  0.7489E-01
    -12.517  0.1726E-01  0.7664E-01
    -12.416  0.1736E-01  0.7841E-01
    -12.314  0.1066E-01  0.7949E-01
    -12.213  0.3998E-02  0.7989E-01
    -12.111  0.9149E-03  0.7999E-01
    -12.010  0.1491E-03  0.8000E-01
    -11.909  0.2456E-03  0.8003E-01
    -11.807  0.1553E-02  0.8018E-01
    -11.706  0.6445E-02  0.8084E-01
    -11.604  0.1709E-01  0.8257E-01
    -11.503  0.2948E-01  0.8556E-01
    -11.401  0.3362E-01  0.8898E-01
    -11.300  0.2566E-01  0.9158E-01
    -11.198  0.1431E-01  0.9303E-01
    -11.097  0.1043E-01  0.9409E-01
    -10.995  0.1611E-01  0.9572E-01
    -10.894  0.2477E-01  0.9824E-01
    -10.792  0.2917E-01  0.1012E+00
    -10.691  0.2728E-01  0.1040E+00
    -10.589  0.2226E-01  0.1062E+00
    -10.488  0.2022E-01  0.1083E+00
    -10.386  0.2246E-01  0.1106E+00
    -10.285  0.2576E-01  0.1132E+00
    -10.183  0.3272E-01  0.1165E+00
    -10.082  0.4432E-01  0.1210E+00
     -9.980  0.4964E-01  0.1260E+00
     -9.879  0.3990E-01  0.1301E+00
     -9.777  0.2198E-01  0.1323E+00
     -9.676  0.8597E-02  0.1332E+00
     -9.574  0.4895E-02  0.1337E+00
     -9.473  0.9498E-02  0.1346E+00
     -9.371  0.1816E-01  0.1365E+00
     -9.270  0.2511E-01  0.1390E+00
     -9.168  0.2903E-01  0.1420E+00
     -9.067  0.3236E-01  0.1453E+00
     -8.966  0.3475E-01  0.1488E+00
     -8.864  0.3473E-01  0.1523E+00
     -8.763  0.3215E-01  0.1556E+00
     -8.661  0.2752E-01  0.1584E+00
     -8.560  0.2356E-01  0.1608E+00
     -8.458  0.2215E-01  0.1630E+00
     -8.357  0.1895E-01  0.1649E+00
     -8.255  0.1148E-01  0.1661E+00
     -8.154  0.4416E-02  0.1665E+00
     -8.052  0.1046E-02  0.1666E+00
     -7.951  0.1513E-03  0.1667E+00
     -7.849  0.1330E-04  0.1667E+00
     -7.748  0.7102E-06  0.1667E+00
     -7.646  0.2302E-07  0.1667E+00
     -7.545  0.3778E-08  0.1667E+00
     -7.443  0.1328E-06  0.1667E+00
     -7.342  0.3206E-05  0.1667E+00
     -7.240  0.4694E-04  0.1667E+00
     -7.139  0.4174E-03  0.1667E+00
     -7.037  0.2258E-02  0.1669E+00
     -6.936  0.7444E-02  0.1677E+00
     -6.834  0.1497E-01  0.1692E+00
     -6.733  0.1843E-01  0.1711E+00
     -6.631  0.1422E-01  0.1725E+00
     -6.530  0.8646E-02  0.1734E+00
     -6.428  0.9382E-02  0.1744E+00
     -6.327  0.1544E-01  0.1759E+00
     -6.226  0.1842E-01  0.1778E+00
     -6.124  0.1394E-01  0.1792E+00
     -6.023  0.8109E-02  0.1800E+00
     -5.921  0.8500E-02  0.1809E+00
     -5.820  0.1477E-01  0.1824E+00
     -5.718  0.1963E-01  0.1844E+00
     -5.617  0.1930E-01  0.1863E+00
     -5.515  0.1885E-01  0.1883E+00
     -5.414  0.1996E-01  0.1903E+00
     -5.312  0.1683E-01  0.1920E+00
     -5.211  0.9280E-02  0.1929E+00
     -5.109  0.3166E-02  0.1933E+00
     -5.008  0.6601E-03  0.1933E+00
     -4.906  0.8382E-04  0.1933E+00
     -4.805  0.6467E-05  0.1933E+00
     -4.703  0.3027E-06  0.1933E+00
     -4.602  0.8580E-08  0.1933E+00
     -4.500  0.1470E-09  0.1933E+00
     -4.399  0.1521E-11  0.1933E+00
     -4.297  0.9483E-14  0.1933E+00
     -4.196  0.3647E-16  0.1933E+00
     -4.094  0.0000E+00  0.1933E+00
     -3.993  0.0000E+00  0.1933E+00
     -3.891  0.0000E+00  0.1933E+00
     -3.790  0.0000E+00  0.1933E+00
     -3.688  0.0000E+00  0.1933E+00
     -3.587  0.0000E+00  0.1933E+00
     -3.485  0.0000E+00  0.1933E+00
     -3.384  0.0000E+00  0.1933E+00
     -3.283  0.0000E+00  0.1933E+00
     -3.181  0.0000E+00  0.1933E+00
     -3.080  0.0000E+00  0.1933E+00
     -2.978  0.0000E+00  0.1933E+00
     -2.877  0.0000E+00  0.1933E+00
     -2.775  0.0000E+00  0.1933E+00
     -2.674  0.0000E+00  0.1933E+00
     -2.572  0.0000E+00  0.1933E+00
     -2.471  0.0000E+00  0.1933E+00
     -2.369  0.0000E+00  0.1933E+00
     -2.268  0.1094E-15  0.1933E+00
     -2.166  0.2665E-13  0.1933E+00
     -2.065  0.3872E-11  0.1933E+00
     -1.963  0.3396E-09  0.1933E+00
     -1.862  0.1801E-07  0.1933E+00
     -1.760  0.5787E-06  0.1933E+00
     -1.659  0.1132E-04  0.1933E+00
     -1.557  0.1354E-03  0.1933E+00
     -1.456  0.9990E-03  0.1934E+00
     -1.354  0.4608E-02  0.1939E+00
     -1.253  0.1353E-01  0.1953E+00
     -1.151  0.2592E-01  0.1979E+00
     -1.050  0.3312E-01  0.2013E+00
     -0.948  0.2857E-01  0.2042E+00
     -0.847  0.1669E-01  0.2059E+00
     -0.745  0.7597E-02  0.2066E+00
     -0.644  0.7043E-02  0.2074E+00
     -0.542  0.1488E-01  0.2089E+00
     -0.441  0.2711E-01  0.2116E+00
     -0.340  0.3911E-01  0.2156E+00
     -0.238  0.4915E-01  0.2206E+00
     -0.137  0.5912E-01  0.2266E+00
     -0.035  0.7651E-01  0.2343E+00
      0.066  0.1026E+00  0.2448E+00
      0.168  0.1156E+00  0.2565E+00
      0.269  0.9349E-01  0.2660E+00
      0.371  0.5042E-01  0.2711E+00
      0.472  0.1755E-01  0.2729E+00
      0.574  0.3875E-02  0.2733E+00
      0.675  0.5368E-03  0.2733E+00
      0.777  0.4628E-04  0.2733E+00
      0.878  0.2467E-05  0.2733E+00
      0.980  0.8087E-07  0.2733E+00
      1.081  0.1623E-08  0.2733E+00
      1.183  0.1986E-10  0.2733E+00
      1.284  0.1477E-12  0.2733E+00
      1.386  0.6673E-15  0.2733E+00
      1.487  0.0000E+00  0.2733E+00
      1.589  0.0000E+00  0.2733E+00
      1.690  0.0000E+00  0.2733E+00
      1.792  0.0000E+00  0.2733E+00
      1.893  0.0000E+00  0.2733E+00
      1.995  0.0000E+00  0.2733E+00
      2.096  0.0000E+00  0.2733E+00
      2.198  0.0000E+00  0.2733E+00
