   22   22  300    1
  0.1227273E+04  0.3000000E-08  0.3000000E-08  0.3000000E-08  0.0000000E+00
  1.000000000000000E-004
  CAR 
 unknown system                          
     58      4     41
 
  0.2500000E+00  0.2500000E+00  0.2500000E+00  0.2500000E+00
    1      -26.247227   1.000000
    2      -25.484287   1.000000
    3      -23.478824   1.000000
    4      -22.625153   1.000000
    5      -19.616135   1.000000
    6      -18.297553   1.000000
    7      -17.319628   1.000000
    8      -16.149357   1.000000
    9      -14.772984   1.000000
   10      -13.893690   1.000000
   11      -13.257508   1.000000
   12      -12.516193   1.000000
   13      -11.529931   1.000000
   14      -11.410693   1.000000
   15      -10.932400   1.000000
   16      -10.732935   1.000000
   17      -10.404583   1.000000
   18      -10.123899   1.000000
   19      -10.035204   1.000000
   20       -9.948061   1.000000
   21       -9.349348   1.000000
   22       -9.112720   1.000000
   23       -8.934680   1.000000
   24       -8.741761   1.000000
   25       -8.448874   1.000000
   26       -6.792201   1.000000
   27       -6.287336   1.000000
   28       -5.767730   1.000000
   29       -5.431056   1.000000
   30       -1.153785   0.000000
   31       -1.022642   0.000000
   32       -0.464298   0.000000
   33       -0.282969   0.000000
   34       -0.198458   0.000000
   35       -0.045357   0.000000
   36        0.046875   0.000000
   37        0.108021   0.000000
   38        0.128195   0.000000
   39        0.134537   0.000000
   40        0.181204   0.000000
   41        0.197554   0.000000
 
 -0.2500000E+00  0.2500000E+00  0.2500000E+00  0.2500000E+00
    1      -26.247225   1.000000
    2      -25.484289   1.000000
    3      -23.478824   1.000000
    4      -22.625155   1.000000
    5      -19.616138   1.000000
    6      -18.297550   1.000000
    7      -17.319622   1.000000
    8      -16.149357   1.000000
    9      -14.772980   1.000000
   10      -13.893695   1.000000
   11      -13.257504   1.000000
   12      -12.516183   1.000000
   13      -11.529938   1.000000
   14      -11.410688   1.000000
   15      -10.932413   1.000000
   16      -10.732938   1.000000
   17      -10.404582   1.000000
   18      -10.123896   1.000000
   19      -10.035205   1.000000
   20       -9.948060   1.000000
   21       -9.349350   1.000000
   22       -9.112731   1.000000
   23       -8.934687   1.000000
   24       -8.741756   1.000000
   25       -8.448872   1.000000
   26       -6.792209   1.000000
   27       -6.287333   1.000000
   28       -5.767741   1.000000
   29       -5.431046   1.000000
   30       -1.153796   0.000000
   31       -1.022640   0.000000
   32       -0.464292   0.000000
   33       -0.282980   0.000000
   34       -0.198416   0.000000
   35       -0.045339   0.000000
   36        0.046015   0.000000
   37        0.104593   0.000000
   38        0.130398   0.000000
   39        0.141590   0.000000
   40        0.182296   0.000000
   41        0.193211   0.000000
 
  0.2500000E+00 -0.2500000E+00  0.2500000E+00  0.2500000E+00
    1      -26.247227   1.000000
    2      -25.484288   1.000000
    3      -23.478825   1.000000
    4      -22.625154   1.000000
    5      -19.616137   1.000000
    6      -18.297552   1.000000
    7      -17.319626   1.000000
    8      -16.149359   1.000000
    9      -14.772979   1.000000
   10      -13.893701   1.000000
   11      -13.257507   1.000000
   12      -12.516189   1.000000
   13      -11.529939   1.000000
   14      -11.410691   1.000000
   15      -10.932406   1.000000
   16      -10.732943   1.000000
   17      -10.404575   1.000000
   18      -10.123904   1.000000
   19      -10.035199   1.000000
   20       -9.948055   1.000000
   21       -9.349351   1.000000
   22       -9.112718   1.000000
   23       -8.934694   1.000000
   24       -8.741752   1.000000
   25       -8.448871   1.000000
   26       -6.792196   1.000000
   27       -6.287343   1.000000
   28       -5.767747   1.000000
   29       -5.431056   1.000000
   30       -1.153797   0.000000
   31       -1.022641   0.000000
   32       -0.464282   0.000000
   33       -0.282980   0.000000
   34       -0.198425   0.000000
   35       -0.044517   0.000000
   36        0.040758   0.000000
   37        0.112977   0.000000
   38        0.125590   0.000000
   39        0.143992   0.000000
   40        0.185816   0.000000
   41        0.194089   0.000000
 
 -0.2500000E+00 -0.2500000E+00  0.2500000E+00  0.2500000E+00
    1      -26.247228   1.000000
    2      -25.484289   1.000000
    3      -23.478824   1.000000
    4      -22.625154   1.000000
    5      -19.616137   1.000000
    6      -18.297552   1.000000
    7      -17.319628   1.000000
    8      -16.149357   1.000000
    9      -14.772985   1.000000
   10      -13.893693   1.000000
   11      -13.257506   1.000000
   12      -12.516182   1.000000
   13      -11.529949   1.000000
   14      -11.410685   1.000000
   15      -10.932411   1.000000
   16      -10.732940   1.000000
   17      -10.404582   1.000000
   18      -10.123900   1.000000
   19      -10.035203   1.000000
   20       -9.948052   1.000000
   21       -9.349351   1.000000
   22       -9.112717   1.000000
   23       -8.934690   1.000000
   24       -8.741774   1.000000
   25       -8.448882   1.000000
   26       -6.792181   1.000000
   27       -6.287333   1.000000
   28       -5.767741   1.000000
   29       -5.431062   1.000000
   30       -1.153793   0.000000
   31       -1.022642   0.000000
   32       -0.464293   0.000000
   33       -0.282972   0.000000
   34       -0.198451   0.000000
   35       -0.044585   0.000000
   36        0.041370   0.000000
   37        0.117603   0.000000
   38        0.127993   0.000000
   39        0.135716   0.000000
   40        0.178525   0.000000
   41        0.191046   0.000000
