       N       E                     dE             d eps       ncg     rms          rms(c)
DAV:   1     0.579685565959E+03    0.57969E+03   -0.82861E+03   408   0.485E+02
DAV:   2     0.245217104647E+03   -0.33447E+03   -0.32370E+03   580   0.981E+01
DAV:   3    -0.518839103284E+02   -0.29710E+03   -0.28966E+03   494   0.106E+02
DAV:   4    -0.136701775344E+03   -0.84818E+02   -0.84305E+02   406   0.763E+01
DAV:   5    -0.141679400525E+03   -0.49776E+01   -0.49670E+01   464   0.208E+01    0.196E+01
DAV:   6    -0.131529122560E+03    0.10150E+02   -0.23726E+01   399   0.199E+01    0.995E+00
DAV:   7    -0.129770430730E+03    0.17587E+01   -0.44621E+00   432   0.830E+00    0.514E+00
DAV:   8    -0.129280485279E+03    0.48995E+00   -0.85462E-01   432   0.406E+00    0.148E+00
DAV:   9    -0.129214585455E+03    0.65900E-01   -0.97942E-02   464   0.155E+00    0.562E-01
DAV:  10    -0.129202186277E+03    0.12399E-01   -0.24130E-02   448   0.816E-01    0.258E-01
DAV:  11    -0.129196682404E+03    0.55039E-02   -0.76433E-03   464   0.452E-01    0.162E-01
DAV:  12    -0.129196731477E+03   -0.49074E-04   -0.55530E-03   368   0.365E-01    0.990E-02
DAV:  13    -0.129202906906E+03   -0.61754E-02   -0.46535E-03   447   0.342E-01    0.598E-02
DAV:  14    -0.129209587516E+03   -0.66806E-02   -0.19605E-03   432   0.222E-01    0.397E-02
DAV:  15    -0.129217627659E+03   -0.80401E-02   -0.86365E-04   428   0.113E-01    0.240E-02
DAV:  16    -0.129223513909E+03   -0.58863E-02   -0.44295E-04   334   0.672E-02    0.136E-02
DAV:  17    -0.129226424482E+03   -0.29106E-02   -0.15116E-04   336   0.397E-02    0.877E-03
DAV:  18    -0.129228134130E+03   -0.17096E-02   -0.11277E-04   318   0.292E-02    0.541E-03
DAV:  19    -0.129229155277E+03   -0.10211E-02   -0.56253E-05   294   0.207E-02    0.318E-03
DAV:  20    -0.129229562014E+03   -0.40674E-03   -0.19669E-05   344   0.136E-02    0.193E-03
DAV:  21    -0.129229791697E+03   -0.22968E-03   -0.89439E-06   296   0.823E-03    0.114E-03
DAV:  22    -0.129229938301E+03   -0.14660E-03   -0.41649E-06   304   0.642E-03    0.739E-04
DAV:  23    -0.129229974256E+03   -0.35955E-04   -0.93856E-07   368   0.297E-03
   1 F= -.12922997E+03 E0= -.12922997E+03  d E =-.129230E+03
       N       E                     dE             d eps       ncg     rms          rms(c)
DAV:   1    -0.129233785338E+03   -0.38470E-02   -0.75236E-02   340   0.147E+00    0.591E-02
DAV:   2    -0.129233914657E+03   -0.12932E-03   -0.17208E-03   464   0.199E-01    0.385E-02
DAV:   3    -0.129233905228E+03    0.94289E-05   -0.56370E-05   358   0.415E-02    0.210E-02
DAV:   4    -0.129233916384E+03   -0.11156E-04   -0.47288E-05   247   0.351E-02    0.604E-03
DAV:   5    -0.129233919591E+03   -0.32072E-05   -0.96821E-06   302   0.174E-02    0.310E-03
DAV:   6    -0.129233922095E+03   -0.25038E-05   -0.17105E-06   206   0.714E-03
   2 F= -.12923392E+03 E0= -.12923392E+03  d E =-.394784E-02
       N       E                     dE             d eps       ncg     rms          rms(c)
DAV:   1    -0.129238749054E+03   -0.48295E-02   -0.22191E-01   330   0.252E+00    0.101E-01
DAV:   2    -0.129239110440E+03   -0.36139E-03   -0.49655E-03   428   0.336E-01    0.641E-02
DAV:   3    -0.129239081129E+03    0.29311E-04   -0.15296E-04   301   0.695E-02    0.352E-02
DAV:   4    -0.129239101562E+03   -0.20433E-04   -0.13357E-04   308   0.587E-02    0.104E-02
DAV:   5    -0.129239103345E+03   -0.17831E-05   -0.28085E-05   286   0.302E-02    0.504E-03
DAV:   6    -0.129239105350E+03   -0.20050E-05   -0.45885E-06   220   0.115E-02
   3 F= -.12923911E+03 E0= -.12923911E+03  d E =-.518325E-02
       N       E                     dE             d eps       ncg     rms          rms(c)
DAV:   1    -0.129244153706E+03   -0.50504E-02   -0.35110E-01   329   0.312E+00    0.124E-01
DAV:   2    -0.129244692292E+03   -0.53859E-03   -0.74666E-03   396   0.403E-01    0.775E-02
DAV:   3    -0.129244672388E+03    0.19904E-04   -0.20183E-04   299   0.821E-02    0.436E-02
DAV:   4    -0.129244713988E+03   -0.41601E-04   -0.17872E-04   317   0.688E-02    0.120E-02
DAV:   5    -0.129244717231E+03   -0.32428E-05   -0.38624E-05   269   0.356E-02    0.620E-03
DAV:   6    -0.129244720468E+03   -0.32372E-05   -0.63444E-06   294   0.133E-02
   4 F= -.12924472E+03 E0= -.12924472E+03  d E =-.561512E-02
       N       E                     dE             d eps       ncg     rms          rms(c)
DAV:   1    -0.129250963739E+03   -0.62465E-02   -0.50763E-01   328   0.368E+00    0.146E-01
DAV:   2    -0.129251706695E+03   -0.74296E-03   -0.10232E-02   396   0.463E-01    0.908E-02
DAV:   3    -0.129251702707E+03    0.39876E-05   -0.23506E-04   296   0.894E-02    0.518E-02
DAV:   4    -0.129251769732E+03   -0.67025E-04   -0.18485E-04   308   0.724E-02    0.114E-02
DAV:   5    -0.129251775236E+03   -0.55044E-05   -0.38047E-05   269   0.346E-02    0.637E-03
DAV:   6    -0.129251779151E+03   -0.39152E-05   -0.55622E-06   291   0.128E-02
   5 F= -.12925178E+03 E0= -.12925178E+03  d E =-.705868E-02
       N       E                     dE             d eps       ncg     rms          rms(c)
DAV:   1    -0.129258986821E+03   -0.72116E-02   -0.71952E-01   328   0.441E+00    0.174E-01
DAV:   2    -0.129260029835E+03   -0.10430E-02   -0.14456E-02   396   0.556E-01    0.109E-01
DAV:   3    -0.129260030785E+03   -0.94921E-06   -0.34578E-04   363   0.107E-01    0.624E-02
DAV:   4    -0.129260131906E+03   -0.10112E-03   -0.22623E-04   367   0.835E-02    0.127E-02
DAV:   5    -0.129260138717E+03   -0.68106E-05   -0.43141E-05   280   0.362E-02    0.722E-03
DAV:   6    -0.129260142936E+03   -0.42196E-05   -0.56283E-06   294   0.127E-02
   6 F= -.12926014E+03 E0= -.12926014E+03  d E =-.836378E-02
       N       E                     dE             d eps       ncg     rms          rms(c)
DAV:   1    -0.129267032686E+03   -0.68940E-02   -0.91666E-01   328   0.502E+00    0.202E-01
DAV:   2    -0.129268380554E+03   -0.13479E-02   -0.18856E-02   396   0.640E-01    0.127E-01
DAV:   3    -0.129268353869E+03    0.26685E-04   -0.51110E-04   427   0.130E-01    0.732E-02
DAV:   4    -0.129268496561E+03   -0.14269E-03   -0.32611E-04   431   0.998E-02    0.177E-02
DAV:   5    -0.129268503451E+03   -0.68893E-05   -0.59695E-05   272   0.438E-02    0.948E-03
DAV:   6    -0.129268508276E+03   -0.48259E-05   -0.10452E-05   286   0.168E-02
   7 F= -.12926851E+03 E0= -.12926851E+03  d E =-.836534E-02
       N       E                     dE             d eps       ncg     rms          rms(c)
DAV:   1    -0.129274898569E+03   -0.63951E-02   -0.12842E+00   328   0.595E+00    0.244E-01
DAV:   2    -0.129276787925E+03   -0.18894E-02   -0.26458E-02   396   0.754E-01    0.155E-01
DAV:   3    -0.129276731164E+03    0.56762E-04   -0.74484E-04   425   0.159E-01    0.895E-02
DAV:   4    -0.129276930461E+03   -0.19930E-03   -0.49888E-04   437   0.122E-01    0.226E-02
DAV:   5    -0.129276938462E+03   -0.80011E-05   -0.86777E-05   303   0.528E-02    0.118E-02
DAV:   6    -0.129276945194E+03   -0.67317E-05   -0.15727E-05   284   0.201E-02
   8 F= -.12927695E+03 E0= -.12927695E+03  d E =-.843692E-02
       N       E                     dE             d eps       ncg     rms          rms(c)
DAV:   1    -0.129283496150E+03   -0.65577E-02   -0.17245E+00   328   0.686E+00    0.284E-01
DAV:   2    -0.129285952227E+03   -0.24561E-02   -0.34341E-02   372   0.859E-01    0.179E-01
DAV:   3    -0.129285946293E+03    0.59347E-05   -0.11802E-03   426   0.183E-01    0.103E-01
DAV:   4    -0.129286194653E+03   -0.24836E-03   -0.59171E-04   396   0.133E-01    0.252E-02
DAV:   5    -0.129286203278E+03   -0.86252E-05   -0.12387E-04   333   0.622E-02    0.126E-02
DAV:   6    -0.129286212224E+03   -0.89455E-05   -0.15459E-05   301   0.208E-02
   9 F= -.12928621E+03 E0= -.12928621E+03  d E =-.926703E-02
       N       E                     dE             d eps       ncg     rms          rms(c)
DAV:   1    -0.129293070833E+03   -0.68676E-02   -0.22993E+00   328   0.792E+00    0.330E-01
DAV:   2    -0.129296315780E+03   -0.32449E-02   -0.45709E-02   404   0.989E-01    0.209E-01
DAV:   3    -0.129296234374E+03    0.81407E-04   -0.13660E-03   395   0.206E-01    0.116E-01
DAV:   4    -0.129296544103E+03   -0.30973E-03   -0.63699E-04   412   0.131E-01    0.277E-02
DAV:   5    -0.129296564577E+03   -0.20475E-04   -0.10592E-04   271   0.568E-02    0.130E-02
DAV:   6    -0.129296578797E+03   -0.14220E-04   -0.16884E-05   306   0.220E-02
  10 F= -.12929658E+03 E0= -.12929658E+03  d E =-.103666E-01
       N       E                     dE             d eps       ncg     rms          rms(c)
DAV:   1    -0.129302055149E+03   -0.54906E-02   -0.31073E+00   328   0.919E+00    0.384E-01
DAV:   2    -0.129306462989E+03   -0.44078E-02   -0.61581E-02   404   0.114E+00    0.245E-01
DAV:   3    -0.129306337638E+03    0.12535E-03   -0.17238E-03   426   0.229E-01    0.136E-01
DAV:   4    -0.129306732372E+03   -0.39473E-03   -0.87345E-04   372   0.154E-01    0.303E-02
DAV:   5    -0.129306760341E+03   -0.27969E-04   -0.14420E-04   280   0.666E-02    0.154E-02
DAV:   6    -0.129306778297E+03   -0.17955E-04   -0.21516E-05   330   0.251E-02
  11 F= -.12930678E+03 E0= -.12930678E+03  d E =-.101995E-01
       N       E                     dE             d eps       ncg     rms          rms(c)
DAV:   1    -0.129310697988E+03   -0.39376E-02   -0.45689E+00   328   0.111E+01    0.452E-01
DAV:   2    -0.129317644240E+03   -0.69463E-02   -0.90475E-02   396   0.138E+00    0.289E-01
DAV:   3    -0.129317345537E+03    0.29870E-03   -0.22111E-03   427   0.267E-01    0.161E-01
DAV:   4    -0.129317859609E+03   -0.51407E-03   -0.14008E-03   453   0.204E-01    0.334E-02
DAV:   5    -0.129317894138E+03   -0.34529E-04   -0.21791E-04   320   0.799E-02    0.207E-02
DAV:   6    -0.129317914452E+03   -0.20314E-04   -0.24747E-05   316   0.263E-02
  12 F= -.12931791E+03 E0= -.12931791E+03  d E =-.111362E-01
       N       E                     dE             d eps       ncg     rms          rms(c)
DAV:   1    -0.129315025220E+03    0.28689E-02   -0.61097E+00   328   0.129E+01    0.539E-01
DAV:   2    -0.129325136432E+03   -0.10111E-01   -0.13503E-01   396   0.169E+00    0.367E-01
DAV:   3    -0.129324455193E+03    0.68124E-03   -0.36530E-03   456   0.349E-01    0.223E-01
DAV:   4    -0.129325095114E+03   -0.63992E-03   -0.28828E-03   396   0.287E-01    0.531E-02
DAV:   5    -0.129325147053E+03   -0.51939E-04   -0.53759E-04   432   0.124E-01    0.293E-02
DAV:   6    -0.129325172960E+03   -0.25907E-04   -0.54164E-05   304   0.384E-02
  13 F= -.12932517E+03 E0= -.12932517E+03  d E =-.725851E-02
       N       E                     dE             d eps       ncg     rms          rms(c)
DAV:   1    -0.129328749912E+03   -0.36029E-02   -0.25103E-01   330   0.273E+00    0.158E-01
DAV:   2    -0.129329568792E+03   -0.81888E-03   -0.11600E-02   369   0.509E-01    0.100E-01
DAV:   3    -0.129329463878E+03    0.10491E-03   -0.34597E-04   430   0.106E-01    0.599E-02
DAV:   4    -0.129329427887E+03    0.35992E-04   -0.25335E-04   339   0.858E-02    0.147E-02
DAV:   5    -0.129329434268E+03   -0.63818E-05   -0.50103E-05   336   0.364E-02    0.789E-03
DAV:   6    -0.129329441159E+03   -0.68904E-05   -0.62416E-06   302   0.136E-02
  14 F= -.12932944E+03 E0= -.12932944E+03  d E =-.426820E-02
       N       E                     dE             d eps       ncg     rms          rms(c)
DAV:   1    -0.129327179531E+03    0.22547E-02   -0.21524E-01   333   0.252E+00    0.134E-01
DAV:   2    -0.129327766376E+03   -0.58685E-03   -0.90408E-03   444   0.451E-01    0.890E-02
DAV:   3    -0.129327649621E+03    0.11676E-03   -0.25898E-04   400   0.939E-02    0.540E-02
DAV:   4    -0.129327602097E+03    0.47524E-04   -0.28955E-04   392   0.884E-02    0.145E-02
DAV:   5    -0.129327605753E+03   -0.36560E-05   -0.43058E-05   336   0.358E-02    0.822E-03
DAV:   6    -0.129327614292E+03   -0.85382E-05   -0.63408E-06   298   0.136E-02
  15 F= -.12932761E+03 E0= -.12932761E+03  d E =0.182687E-02
       N       E                     dE             d eps       ncg     rms          rms(c)
DAV:   1    -0.129329038975E+03   -0.14332E-02   -0.13511E-02   376   0.633E-01    0.370E-02
DAV:   2    -0.129329098422E+03   -0.59447E-04   -0.61661E-04   410   0.118E-01    0.234E-02
DAV:   3    -0.129329105680E+03   -0.72574E-05   -0.16909E-05   336   0.245E-02    0.137E-02
DAV:   4    -0.129329124379E+03   -0.18699E-04   -0.15683E-05   240   0.215E-02    0.276E-03
DAV:   5    -0.129329132574E+03   -0.81957E-05   -0.38633E-06   336   0.973E-03    0.151E-03
DAV:   6    -0.129329137185E+03   -0.46110E-05   -0.55751E-07   232   0.369E-03
  16 F= -.12932914E+03 E0= -.12932914E+03  d E =-.152289E-02
       N       E                     dE             d eps       ncg     rms          rms(c)
DAV:   1    -0.129330599693E+03   -0.14671E-02   -0.41025E-02   364   0.111E+00    0.630E-02
DAV:   2    -0.129330724921E+03   -0.12523E-03   -0.18979E-03   393   0.207E-01    0.404E-02
DAV:   3    -0.129330704727E+03    0.20193E-04   -0.51862E-05   351   0.427E-02    0.241E-02
DAV:   4    -0.129330691163E+03    0.13564E-04   -0.51198E-05   264   0.390E-02    0.522E-03
DAV:   5    -0.129330690526E+03    0.63740E-06   -0.11835E-05   368   0.178E-02    0.305E-03
DAV:   6    -0.129330691231E+03   -0.70498E-06   -0.16503E-06   250   0.674E-03
  17 F= -.12933069E+03 E0= -.12933069E+03  d E =-.155405E-02
       N       E                     dE             d eps       ncg     rms          rms(c)
DAV:   1    -0.129330931991E+03   -0.24147E-03   -0.54738E-02   358   0.128E+00    0.708E-02
DAV:   2    -0.129331085224E+03   -0.15323E-03   -0.24941E-03   440   0.237E-01    0.463E-02
DAV:   3    -0.129331050670E+03    0.34554E-04   -0.62439E-05   272   0.479E-02    0.281E-02
DAV:   4    -0.129331026618E+03    0.24052E-04   -0.84832E-05   341   0.487E-02    0.698E-03
DAV:   5    -0.129331027189E+03   -0.57078E-06   -0.18931E-05   272   0.243E-02    0.374E-03
DAV:   6    -0.129331029818E+03   -0.26287E-05   -0.33614E-06   284   0.958E-03
  18 F= -.12933103E+03 E0= -.12933103E+03  d E =-.338587E-03
       N       E                     dE             d eps       ncg     rms          rms(c)
DAV:   1    -0.129331083781E+03   -0.56592E-04   -0.74832E-05   258   0.473E-02    0.280E-03
DAV:   2    -0.129331088000E+03   -0.42190E-05   -0.44203E-06   272   0.118E-02    0.186E-03
DAV:   3    -0.129331092545E+03   -0.45446E-05   -0.81329E-07   264   0.438E-03    0.108E-03
DAV:   4    -0.129331097048E+03   -0.45036E-05   -0.19797E-07   246   0.204E-03    0.566E-04
DAV:   5    -0.129331102016E+03   -0.49679E-05   -0.21557E-07   232   0.149E-03    0.327E-04
DAV:   6    -0.129331105872E+03   -0.38561E-05   -0.14755E-07   286   0.141E-03
  19 F= -.12933111E+03 E0= -.12933111E+03  d E =-.760547E-04
       N       E                     dE             d eps       ncg     rms          rms(c)
DAV:   1    -0.129331197884E+03   -0.95868E-04   -0.29018E-04   266   0.929E-02    0.430E-03
DAV:   2    -0.129331200064E+03   -0.21801E-05   -0.14729E-05   272   0.207E-02    0.286E-03
DAV:   3    -0.129331200970E+03   -0.90558E-06   -0.15495E-06   202   0.664E-03    0.196E-03
DAV:   4    -0.129331202481E+03   -0.15109E-05   -0.57244E-07   309   0.388E-03    0.675E-04
DAV:   5    -0.129331203018E+03   -0.53715E-06   -0.70279E-08   272   0.177E-03    0.346E-04
DAV:   6    -0.129331203595E+03   -0.57752E-06   -0.14972E-09   208   0.105E-03
  20 F= -.12933120E+03 E0= -.12933120E+03  d E =-.977228E-04
       N       E                     dE             d eps       ncg     rms          rms(c)
DAV:   1    -0.129331322033E+03   -0.11901E-03   -0.60340E-04   359   0.133E-01    0.615E-03
DAV:   2    -0.129331323973E+03   -0.19408E-05   -0.25625E-05   217   0.255E-02    0.409E-03
DAV:   3    -0.129331324221E+03   -0.24760E-06   -0.27498E-06   264   0.861E-03    0.267E-03
DAV:   4    -0.129331324480E+03   -0.25888E-06   -0.84448E-07   200   0.505E-03    0.794E-04
DAV:   5    -0.129331324604E+03   -0.12465E-06   -0.18958E-07   272   0.251E-03    0.429E-04
DAV:   6    -0.129331324757E+03   -0.15253E-06   -0.32246E-08   218   0.141E-03
  21 F= -.12933132E+03 E0= -.12933132E+03  d E =-.121162E-03
       N       E                     dE             d eps       ncg     rms          rms(c)
DAV:   1    -0.129331459958E+03   -0.13535E-03   -0.95816E-04   384   0.167E-01    0.853E-03
DAV:   2    -0.129331461817E+03   -0.18588E-05   -0.34443E-05   204   0.289E-02    0.520E-03
DAV:   3    -0.129331461677E+03    0.13992E-06   -0.37904E-06   272   0.991E-03    0.302E-03
DAV:   4    -0.129331461469E+03    0.20819E-06   -0.11182E-06   200   0.552E-03    0.925E-04
DAV:   5    -0.129331461446E+03    0.22746E-07   -0.28606E-07   256   0.287E-03    0.428E-04
DAV:   6    -0.129331461532E+03   -0.85701E-07   -0.61263E-08   200   0.154E-03
  22 F= -.12933146E+03 E0= -.12933146E+03  d E =-.136775E-03
       N       E                     dE             d eps       ncg     rms          rms(c)
DAV:   1    -0.129331603706E+03   -0.14226E-03   -0.12784E-03   384   0.192E-01    0.938E-03
DAV:   2    -0.129331606164E+03   -0.24575E-05   -0.43636E-05   236   0.324E-02    0.580E-03
DAV:   3    -0.129331606026E+03    0.13765E-06   -0.47842E-06   222   0.111E-02    0.339E-03
DAV:   4    -0.129331605836E+03    0.18986E-06   -0.14391E-06   216   0.620E-03    0.102E-03
DAV:   5    -0.129331605850E+03   -0.13692E-07   -0.38092E-07   164   0.321E-03    0.483E-04
DAV:   6    -0.129331605988E+03   -0.13832E-06   -0.95765E-08   212   0.174E-03
  23 F= -.12933161E+03 E0= -.12933161E+03  d E =-.144456E-03
       N       E                     dE             d eps       ncg     rms          rms(c)
DAV:   1    -0.129331751659E+03   -0.14581E-03   -0.15199E-03   370   0.208E-01    0.954E-03
DAV:   2    -0.129331754521E+03   -0.28616E-05   -0.47624E-05   218   0.337E-02    0.597E-03
DAV:   3    -0.129331754488E+03    0.32432E-07   -0.51630E-06   164   0.115E-02    0.351E-03
DAV:   4    -0.129331754437E+03    0.51396E-07   -0.15754E-06   202   0.644E-03    0.103E-03
DAV:   5    -0.129331754506E+03   -0.69340E-07   -0.42370E-07   164   0.330E-03    0.504E-04
DAV:   6    -0.129331754687E+03   -0.18008E-06   -0.11540E-07   200   0.182E-03
  24 F= -.12933175E+03 E0= -.12933175E+03  d E =-.148698E-03
       N       E                     dE             d eps       ncg     rms          rms(c)
DAV:   1    -0.129331924202E+03   -0.16970E-03   -0.20649E-03   365   0.241E-01    0.101E-02
DAV:   2    -0.129331927829E+03   -0.36268E-05   -0.56575E-05   212   0.364E-02    0.638E-03
DAV:   3    -0.129331927961E+03   -0.13275E-06   -0.59981E-06   164   0.123E-02    0.377E-03
DAV:   4    -0.129331928124E+03   -0.16260E-06   -0.18476E-06   164   0.691E-03    0.103E-03
DAV:   5    -0.129331928238E+03   -0.11439E-06   -0.51343E-07   164   0.350E-03    0.542E-04
DAV:   6    -0.129331928441E+03   -0.20277E-06   -0.15287E-07   200   0.195E-03
  25 F= -.12933193E+03 E0= -.12933193E+03  d E =-.173755E-03
       N       E                     dE             d eps       ncg     rms          rms(c)
DAV:   1    -0.129332139166E+03   -0.21093E-03   -0.27699E-03   347   0.275E-01    0.104E-02
DAV:   2    -0.129332143752E+03   -0.45867E-05   -0.65710E-05   241   0.380E-02    0.670E-03
DAV:   3    -0.129332143953E+03   -0.20053E-06   -0.45980E-06   164   0.998E-03    0.407E-03
DAV:   4    -0.129332144517E+03   -0.56408E-06   -0.20678E-06   164   0.710E-03    0.907E-04
DAV:   5    -0.129332144667E+03   -0.15005E-06   -0.58982E-07   164   0.354E-03    0.601E-04
DAV:   6    -0.129332144868E+03   -0.20138E-06   -0.17564E-07   200   0.185E-03
  26 F= -.12933214E+03 E0= -.12933214E+03  d E =-.216427E-03
       N       E                     dE             d eps       ncg     rms          rms(c)
DAV:   1    -0.129332422845E+03   -0.27818E-03   -0.38976E-03   370   0.323E-01    0.116E-02
DAV:   2    -0.129332428692E+03   -0.58473E-05   -0.79029E-05   248   0.412E-02    0.717E-03
DAV:   3    -0.129332429291E+03   -0.59853E-06   -0.54093E-06   164   0.105E-02    0.423E-03
DAV:   4    -0.129332430365E+03   -0.10742E-05   -0.21542E-06   227   0.699E-03    0.762E-04
DAV:   5    -0.129332430577E+03   -0.21239E-06   -0.69573E-07   191   0.352E-03    0.577E-04
DAV:   6    -0.129332430770E+03   -0.19239E-06   -0.21355E-07   225   0.173E-03
  27 F= -.12933243E+03 E0= -.12933243E+03  d E =-.285901E-03
       N       E                     dE             d eps       ncg     rms          rms(c)
DAV:   1    -0.129332799772E+03   -0.36919E-03   -0.59374E-03   341   0.397E-01    0.142E-02
DAV:   2    -0.129332808572E+03   -0.88004E-05   -0.11653E-04   275   0.500E-02    0.868E-03
DAV:   3    -0.129332809531E+03   -0.95864E-06   -0.79316E-06   272   0.126E-02    0.506E-03
DAV:   4    -0.129332811043E+03   -0.15124E-05   -0.30905E-06   201   0.833E-03    0.823E-04
DAV:   5    -0.129332811252E+03   -0.20868E-06   -0.10324E-06   264   0.417E-03    0.655E-04
DAV:   6    -0.129332811363E+03   -0.11093E-06   -0.32564E-07   200   0.194E-03
  28 F= -.12933281E+03 E0= -.12933281E+03  d E =-.380593E-03
       N       E                     dE             d eps       ncg     rms          rms(c)
DAV:   1    -0.129333278041E+03   -0.46679E-03   -0.95183E-03   333   0.505E-01    0.182E-02
DAV:   2    -0.129333293718E+03   -0.15677E-04   -0.20926E-04   340   0.655E-02    0.116E-02
DAV:   3    -0.129333293859E+03   -0.14153E-06   -0.74858E-06   272   0.142E-02    0.685E-03
DAV:   4    -0.129333295185E+03   -0.13261E-05   -0.40366E-06   224   0.110E-02    0.124E-03
DAV:   5    -0.129333295294E+03   -0.10877E-06   -0.10224E-06   272   0.518E-03    0.821E-04
DAV:   6    -0.129333295379E+03   -0.84760E-07   -0.17251E-07   202   0.213E-03
  29 F= -.12933330E+03 E0= -.12933330E+03  d E =-.484016E-03
       N       E                     dE             d eps       ncg     rms          rms(c)
DAV:   1    -0.129333846458E+03   -0.55116E-03   -0.15148E-02   334   0.639E-01    0.233E-02
DAV:   2    -0.129333872427E+03   -0.25968E-04   -0.34718E-04   308   0.845E-02    0.155E-02
DAV:   3    -0.129333871862E+03    0.56505E-06   -0.98810E-06   272   0.171E-02    0.941E-03
DAV:   4    -0.129333873730E+03   -0.18684E-05   -0.73434E-06   224   0.153E-02    0.164E-03
DAV:   5    -0.129333873916E+03   -0.18641E-06   -0.19827E-06   264   0.690E-03    0.130E-03
DAV:   6    -0.129333874082E+03   -0.16554E-06   -0.38298E-07   200   0.284E-03
  30 F= -.12933387E+03 E0= -.12933387E+03  d E =-.578703E-03
       N       E                     dE             d eps       ncg     rms          rms(c)
DAV:   1    -0.129334505274E+03   -0.63136E-03   -0.22901E-02   332   0.784E-01    0.284E-02
DAV:   2    -0.129334544583E+03   -0.39308E-04   -0.51624E-04   348   0.102E-01    0.185E-02
DAV:   3    -0.129334543730E+03    0.85298E-06   -0.11275E-05   237   0.191E-02    0.111E-02
DAV:   4    -0.129334546984E+03   -0.32543E-05   -0.95619E-06   234   0.172E-02    0.195E-03
DAV:   5    -0.129334547326E+03   -0.34200E-06   -0.24179E-06   236   0.797E-03    0.136E-03
DAV:   6    -0.129334547603E+03   -0.27631E-06   -0.38735E-07   191   0.300E-03
  31 F= -.12933455E+03 E0= -.12933455E+03  d E =-.673521E-03
       N       E                     dE             d eps       ncg     rms          rms(c)
DAV:   1    -0.129335303799E+03   -0.75647E-03   -0.33299E-02   331   0.941E-01    0.336E-02
DAV:   2    -0.129335359008E+03   -0.55209E-04   -0.71086E-04   393   0.118E-01    0.215E-02
DAV:   3    -0.129335358391E+03    0.61719E-06   -0.87247E-06   200   0.178E-02    0.127E-02
DAV:   4    -0.129335364558E+03   -0.61673E-05   -0.11292E-05   236   0.186E-02    0.206E-03
DAV:   5    -0.129335365068E+03   -0.50994E-06   -0.29663E-06   200   0.851E-03    0.156E-03
DAV:   6    -0.129335365419E+03   -0.35058E-06   -0.41148E-07   210   0.298E-03
  32 F= -.12933537E+03 E0= -.12933537E+03  d E =-.817816E-03
       N       E                     dE             d eps       ncg     rms          rms(c)
DAV:   1    -0.129336297987E+03   -0.93292E-03   -0.49214E-02   330   0.114E+00    0.409E-02
DAV:   2    -0.129336379344E+03   -0.81357E-04   -0.10446E-03   396   0.144E-01    0.261E-02
DAV:   3    -0.129336379293E+03    0.51148E-07   -0.12735E-05   272   0.216E-02    0.154E-02
DAV:   4    -0.129336389042E+03   -0.97484E-05   -0.17858E-05   241   0.222E-02    0.289E-03
DAV:   5    -0.129336389490E+03   -0.44791E-06   -0.35657E-06   272   0.988E-03    0.199E-03
DAV:   6    -0.129336389781E+03   -0.29171E-06   -0.43151E-07   202   0.366E-03
  33 F= -.12933639E+03 E0= -.12933639E+03  d E =-.102436E-02
       N       E                     dE             d eps       ncg     rms          rms(c)
DAV:   1    -0.129337475163E+03   -0.10857E-02   -0.74418E-02   332   0.141E+00    0.509E-02
DAV:   2    -0.129337600396E+03   -0.12523E-03   -0.16282E-03   396   0.180E-01    0.329E-02
DAV:   3    -0.129337599311E+03    0.10848E-05   -0.21035E-05   272   0.279E-02    0.196E-02
DAV:   4    -0.129337612777E+03   -0.13466E-04   -0.30617E-05   272   0.287E-02    0.411E-03
DAV:   5    -0.129337613124E+03   -0.34674E-06   -0.56851E-06   272   0.129E-02    0.274E-03
DAV:   6    -0.129337613446E+03   -0.32195E-06   -0.84177E-07   204   0.491E-03
  34 F= -.12933761E+03 E0= -.12933761E+03  d E =-.122366E-02
       N       E                     dE             d eps       ncg     rms          rms(c)
DAV:   1    -0.129338833551E+03   -0.12204E-02   -0.10991E-01   329   0.171E+00    0.616E-02
DAV:   2    -0.129339015059E+03   -0.18151E-03   -0.23598E-03   396   0.216E-01    0.396E-02
DAV:   3    -0.129339014591E+03    0.46729E-06   -0.29498E-05   236   0.330E-02    0.235E-02
DAV:   4    -0.129339034691E+03   -0.20100E-04   -0.41714E-05   258   0.340E-02    0.462E-03
DAV:   5    -0.129339035454E+03   -0.76251E-06   -0.84962E-06   264   0.154E-02    0.310E-03
DAV:   6    -0.129339036022E+03   -0.56874E-06   -0.11555E-06   208   0.576E-03
  35 F= -.12933904E+03 E0= -.12933904E+03  d E =-.142258E-02
       N       E                     dE             d eps       ncg     rms          rms(c)
DAV:   1    -0.129340471742E+03   -0.14363E-02   -0.15938E-01   331   0.206E+00    0.742E-02
DAV:   2    -0.129340731644E+03   -0.25990E-03   -0.33528E-03   395   0.258E-01    0.470E-02
DAV:   3    -0.129340732730E+03   -0.10864E-05   -0.40557E-05   244   0.384E-02    0.275E-02
DAV:   4    -0.129340761936E+03   -0.29206E-04   -0.58259E-05   292   0.396E-02    0.508E-03
DAV:   5    -0.129340762980E+03   -0.10440E-05   -0.10014E-05   272   0.164E-02    0.367E-03
DAV:   6    -0.129340763630E+03   -0.64962E-06   -0.12906E-06   208   0.608E-03
  36 F= -.12934076E+03 E0= -.12934076E+03  d E =-.172761E-02
       N       E                     dE             d eps       ncg     rms          rms(c)
DAV:   1    -0.129342364423E+03   -0.16014E-02   -0.23546E-01   330   0.251E+00    0.908E-02
DAV:   2    -0.129342755393E+03   -0.39097E-03   -0.50293E-03   371   0.316E-01    0.579E-02
DAV:   3    -0.129342754583E+03    0.81003E-06   -0.69378E-05   309   0.476E-02    0.337E-02
DAV:   4    -0.129342793031E+03   -0.38448E-04   -0.69582E-05   283   0.472E-02    0.543E-03
DAV:   5    -0.129342794841E+03   -0.18096E-05   -0.14685E-05   272   0.200E-02    0.383E-03
DAV:   6    -0.129342795754E+03   -0.91345E-06   -0.16774E-06   234   0.665E-03
  37 F= -.12934280E+03 E0= -.12934280E+03  d E =-.203212E-02
       N       E                     dE             d eps       ncg     rms          rms(c)
DAV:   1    -0.129344570001E+03   -0.17752E-02   -0.33714E-01   330   0.300E+00    0.109E-01
DAV:   2    -0.129345124462E+03   -0.55446E-03   -0.70959E-03   396   0.376E-01    0.688E-02
DAV:   3    -0.129345127886E+03   -0.34234E-05   -0.95835E-05   300   0.561E-02    0.398E-02
DAV:   4    -0.129345185214E+03   -0.57329E-04   -0.92012E-05   268   0.546E-02    0.626E-03
DAV:   5    -0.129345187974E+03   -0.27592E-05   -0.20518E-05   244   0.235E-02    0.422E-03
DAV:   6    -0.129345189376E+03   -0.14019E-05   -0.24586E-06   282   0.786E-03
  38 F= -.12934519E+03 E0= -.12934519E+03  d E =-.239362E-02
       N       E                     dE             d eps       ncg     rms          rms(c)
DAV:   1    -0.129347137978E+03   -0.19500E-02   -0.48573E-01   328   0.360E+00    0.132E-01
DAV:   2    -0.129347949579E+03   -0.81160E-03   -0.10400E-02   396   0.455E-01    0.839E-02
DAV:   3    -0.129347952669E+03   -0.30904E-05   -0.14522E-04   351   0.694E-02    0.489E-02
DAV:   4    -0.129348035194E+03   -0.82525E-04   -0.13688E-04   250   0.664E-02    0.785E-03
DAV:   5    -0.129348038965E+03   -0.37708E-05   -0.30517E-05   296   0.286E-02    0.559E-03
DAV:   6    -0.129348040624E+03   -0.16593E-05   -0.30099E-06   268   0.913E-03
  39 F= -.12934804E+03 E0= -.12934804E+03  d E =-.285125E-02
       N       E                     dE             d eps       ncg     rms          rms(c)
DAV:   1    -0.129350127025E+03   -0.20881E-02   -0.69365E-01   328   0.430E+00    0.158E-01
DAV:   2    -0.129351286237E+03   -0.11592E-02   -0.14719E-02   404   0.541E-01    0.998E-02
DAV:   3    -0.129351294386E+03   -0.81482E-05   -0.20485E-04   364   0.810E-02    0.577E-02
DAV:   4    -0.129351406178E+03   -0.11179E-03   -0.17937E-04   268   0.768E-02    0.895E-03
DAV:   5    -0.129351411778E+03   -0.55996E-05   -0.41569E-05   303   0.333E-02    0.678E-03
DAV:   6    -0.129351413962E+03   -0.21842E-05   -0.42687E-06   264   0.107E-02
  40 F= -.12935141E+03 E0= -.12935141E+03  d E =-.337334E-02
       N       E                     dE             d eps       ncg     rms          rms(c)
DAV:   1    -0.129353475863E+03   -0.20641E-02   -0.99524E-01   328   0.515E+00    0.191E-01
DAV:   2    -0.129355156533E+03   -0.16807E-02   -0.21194E-02   372   0.653E-01    0.121E-01
DAV:   3    -0.129355182827E+03   -0.26294E-04   -0.48733E-04   396   0.106E-01    0.710E-02
DAV:   4    -0.129355327525E+03   -0.14470E-03   -0.25309E-04   332   0.926E-02    0.114E-02
DAV:   5    -0.129355334245E+03   -0.67209E-05   -0.59551E-05   304   0.399E-02    0.966E-03
DAV:   6    -0.129355337458E+03   -0.32127E-05   -0.70173E-06   272   0.140E-02
  41 F= -.12935534E+03 E0= -.12935534E+03  d E =-.392350E-02
       N       E                     dE             d eps       ncg     rms          rms(c)
DAV:   1    -0.129357321879E+03   -0.19876E-02   -0.13840E+00   328   0.607E+00    0.227E-01
DAV:   2    -0.129359688157E+03   -0.23663E-02   -0.29814E-02   364   0.773E-01    0.145E-01
DAV:   3    -0.129359719006E+03   -0.30849E-04   -0.68998E-04   412   0.127E-01    0.856E-02
DAV:   4    -0.129359925834E+03   -0.20683E-03   -0.36943E-04   356   0.108E-01    0.147E-02
DAV:   5    -0.129359933949E+03   -0.81148E-05   -0.72780E-05   304   0.438E-02    0.112E-02
DAV:   6    -0.129359938957E+03   -0.50082E-05   -0.77426E-06   280   0.151E-02
  42 F= -.12935994E+03 E0= -.12935994E+03  d E =-.460150E-02
       N       E                     dE             d eps       ncg     rms          rms(c)
DAV:   1    -0.129361518915E+03   -0.15850E-02   -0.19336E+00   328   0.717E+00    0.269E-01
DAV:   2    -0.129364881596E+03   -0.33627E-02   -0.41837E-02   372   0.914E-01    0.172E-01
DAV:   3    -0.129364917599E+03   -0.36003E-04   -0.95380E-04   428   0.148E-01    0.100E-01
DAV:   4    -0.129365170787E+03   -0.25319E-03   -0.48730E-04   396   0.125E-01    0.167E-02
DAV:   5    -0.129365182593E+03   -0.11807E-04   -0.98419E-05   336   0.498E-02    0.136E-02
DAV:   6    -0.129365188658E+03   -0.60650E-05   -0.87094E-06   304   0.156E-02
  43 F= -.12936519E+03 E0= -.12936519E+03  d E =-.524970E-02
       N       E                     dE             d eps       ncg     rms          rms(c)
DAV:   1    -0.129365723951E+03   -0.54136E-03   -0.26569E+00   328   0.841E+00    0.318E-01
DAV:   2    -0.129370448310E+03   -0.47244E-02   -0.59032E-02   364   0.109E+00    0.207E-01
DAV:   3    -0.129370458811E+03   -0.10501E-04   -0.13896E-03   455   0.181E-01    0.123E-01
DAV:   4    -0.129370812580E+03   -0.35377E-03   -0.69085E-04   339   0.148E-01    0.207E-02
DAV:   5    -0.129370832671E+03   -0.20090E-04   -0.14865E-04   400   0.606E-02    0.163E-02
DAV:   6    -0.129370841231E+03   -0.85600E-05   -0.98552E-06   294   0.167E-02
  44 F= -.12937084E+03 E0= -.12937084E+03  d E =-.565257E-02
       N       E                     dE             d eps       ncg     rms          rms(c)
DAV:   1    -0.129367532509E+03    0.33002E-02   -0.37635E+00   328   0.101E+01    0.392E-01
DAV:   2    -0.129374863286E+03   -0.73308E-02   -0.91842E-02   329   0.137E+00    0.260E-01
DAV:   3    -0.129374708116E+03    0.15517E-03   -0.22254E-03   455   0.234E-01    0.157E-01
DAV:   4    -0.129374990609E+03   -0.28249E-03   -0.12701E-03   396   0.203E-01    0.273E-02
DAV:   5    -0.129375023680E+03   -0.33071E-04   -0.26762E-04   432   0.806E-02    0.219E-02
DAV:   6    -0.129375033833E+03   -0.10153E-04   -0.14405E-05   326   0.207E-02
  45 F= -.12937503E+03 E0= -.12937503E+03  d E =-.419260E-02
       N       E                     dE             d eps       ncg     rms          rms(c)
DAV:   1    -0.129377489669E+03   -0.24660E-02   -0.15221E-01   329   0.211E+00    0.132E-01
DAV:   2    -0.129378015344E+03   -0.52567E-03   -0.72199E-03   394   0.397E-01    0.782E-02
DAV:   3    -0.129377957469E+03    0.57875E-04   -0.20920E-04   381   0.845E-02    0.452E-02
DAV:   4    -0.129377942966E+03    0.14504E-04   -0.15154E-04   265   0.659E-02    0.108E-02
DAV:   5    -0.129377950700E+03   -0.77341E-05   -0.36223E-05   351   0.297E-02    0.575E-03
DAV:   6    -0.129377956522E+03   -0.58227E-05   -0.50344E-06   284   0.116E-02
  46 F= -.12937796E+03 E0= -.12937796E+03  d E =-.292269E-02
       N       E                     dE             d eps       ncg     rms          rms(c)
DAV:   1    -0.129375945353E+03    0.20053E-02   -0.16644E-01   330   0.221E+00    0.132E-01
DAV:   2    -0.129376457466E+03   -0.51211E-03   -0.78613E-03   396   0.414E-01    0.808E-02
DAV:   3    -0.129376353173E+03    0.10429E-03   -0.22233E-04   400   0.866E-02    0.474E-02
DAV:   4    -0.129376286798E+03    0.66375E-04   -0.17161E-04   328   0.701E-02    0.118E-02
DAV:   5    -0.129376285049E+03    0.17490E-05   -0.39969E-05   336   0.322E-02    0.651E-03
DAV:   6    -0.129376293546E+03   -0.84975E-05   -0.59444E-06   304   0.128E-02
  47 F= -.12937629E+03 E0= -.12937629E+03  d E =0.166298E-02
       N       E                     dE             d eps       ncg     rms          rms(c)
DAV:   1    -0.129377138766E+03   -0.85372E-03   -0.67953E-03   365   0.445E-01    0.283E-02
DAV:   2    -0.129377174611E+03   -0.35845E-04   -0.31586E-04   412   0.838E-02    0.163E-02
DAV:   3    -0.129377182525E+03   -0.79138E-05   -0.10982E-05   268   0.191E-02    0.939E-03
DAV:   4    -0.129377196710E+03   -0.14186E-04   -0.72989E-06   282   0.141E-02    0.209E-03
DAV:   5    -0.129377203392E+03   -0.66816E-05   -0.18119E-06   296   0.665E-03    0.103E-03
DAV:   6    -0.129377206802E+03   -0.34103E-05   -0.32624E-07   216   0.275E-03
  48 F= -.12937721E+03 E0= -.12937721E+03  d E =-.913256E-03
       N       E                     dE             d eps       ncg     rms          rms(c)
DAV:   1    -0.129378156914E+03   -0.95352E-03   -0.21617E-02   339   0.797E-01    0.495E-02
DAV:   2    -0.129378229060E+03   -0.72146E-04   -0.10481E-03   425   0.152E-01    0.300E-02
DAV:   3    -0.129378218269E+03    0.10791E-04   -0.28218E-05   340   0.314E-02    0.178E-02
DAV:   4    -0.129378211198E+03    0.70717E-05   -0.26211E-05   240   0.275E-02    0.398E-03
DAV:   5    -0.129378210822E+03    0.37573E-06   -0.62919E-06   360   0.129E-02    0.216E-03
DAV:   6    -0.129378211241E+03   -0.41924E-06   -0.91528E-07   266   0.498E-03
  49 F= -.12937821E+03 E0= -.12937821E+03  d E =-.100444E-02
       N       E                     dE             d eps       ncg     rms          rms(c)
DAV:   1    -0.129378493620E+03   -0.28280E-03   -0.31398E-02   357   0.962E-01    0.593E-02
DAV:   2    -0.129378589038E+03   -0.95418E-04   -0.15261E-03   440   0.183E-01    0.363E-02
DAV:   3    -0.129378566278E+03    0.22760E-04   -0.39306E-05   272   0.380E-02    0.217E-02
DAV:   4    -0.129378549510E+03    0.16768E-04   -0.47667E-05   340   0.359E-02    0.540E-03
DAV:   5    -0.129378548930E+03    0.58067E-06   -0.11008E-05   272   0.186E-02    0.284E-03
DAV:   6    -0.129378550305E+03   -0.13757E-05   -0.19949E-06   228   0.746E-03
  50 F= -.12937855E+03 E0= -.12937855E+03  d E =-.339064E-03
       N       E                     dE             d eps       ncg     rms          rms(c)
DAV:   1    -0.129378566293E+03   -0.17363E-04   -0.13087E-05   323   0.192E-02    0.137E-03
DAV:   2    -0.129378568730E+03   -0.24371E-05   -0.77642E-07   272   0.487E-03    0.934E-04
DAV:   3    -0.129378572045E+03   -0.33146E-05   -0.19771E-07   200   0.205E-03    0.541E-04
DAV:   4    -0.129378576336E+03   -0.42913E-05   -0.19444E-07   309   0.137E-03    0.249E-04
DAV:   5    -0.129378579669E+03   -0.33327E-05   -0.10790E-07   243   0.101E-03    0.199E-04
DAV:   6    -0.129378583926E+03   -0.42575E-05   -0.19739E-07   289   0.128E-03
  51 F= -.12937858E+03 E0= -.12937858E+03  d E =-.336210E-04
       N       E                     dE             d eps       ncg     rms          rms(c)
DAV:   1    -0.129378609270E+03   -0.29602E-04   -0.48527E-05   303   0.379E-02    0.159E-03
DAV:   2    -0.129378609901E+03   -0.63092E-06   -0.26946E-06   240   0.931E-03    0.106E-03
DAV:   3    -0.129378610244E+03   -0.34276E-06   -0.24435E-07   254   0.286E-03    0.765E-04
DAV:   4    -0.129378610875E+03   -0.63137E-06   -0.39682E-08   226   0.160E-03    0.202E-04
DAV:   5    -0.129378611123E+03   -0.24758E-06    0.23167E-08   264   0.759E-04    0.134E-04
DAV:   6    -0.129378611346E+03   -0.22268E-06    0.41084E-08   230   0.425E-04
  52 F= -.12937861E+03 E0= -.12937861E+03  d E =-.274195E-04
       N       E                     dE             d eps       ncg     rms          rms(c)
DAV:   1    -0.129378645440E+03   -0.34317E-04   -0.10209E-04   238   0.553E-02    0.230E-03
DAV:   2    -0.129378646116E+03   -0.67614E-06   -0.69267E-06   262   0.151E-02    0.151E-03
DAV:   3    -0.129378646238E+03   -0.12188E-06   -0.78377E-07   202   0.448E-03    0.115E-03
DAV:   4    -0.129378646337E+03   -0.99235E-07   -0.18367E-07   246   0.244E-03    0.358E-04
DAV:   5    -0.129378646403E+03   -0.66194E-07   -0.31668E-08   244   0.123E-03    0.221E-04
DAV:   6    -0.129378646459E+03   -0.56319E-07    0.22992E-08   220   0.726E-04
  53 F= -.12937865E+03 E0= -.12937865E+03  d E =-.351137E-04
       N       E                     dE             d eps       ncg     rms          rms(c)
DAV:   1    -0.129378688925E+03   -0.42522E-04   -0.17163E-04   252   0.709E-02    0.294E-03
DAV:   2    -0.129378689616E+03   -0.69073E-06   -0.93488E-06   231   0.173E-02    0.192E-03
DAV:   3    -0.129378689653E+03   -0.37507E-07   -0.94725E-07   216   0.532E-03    0.139E-03
DAV:   4    -0.129378689613E+03    0.40492E-07   -0.23609E-07   232   0.292E-03    0.357E-04
DAV:   5    -0.129378689621E+03   -0.87625E-08   -0.35389E-08   175   0.136E-03    0.244E-04
DAV:   6    -0.129378689654E+03   -0.32984E-07    0.18584E-08   180   0.756E-04
  54 F= -.12937869E+03 E0= -.12937869E+03  d E =-.431951E-04
       N       E                     dE             d eps       ncg     rms          rms(c)
DAV:   1    -0.129378739465E+03   -0.49844E-04   -0.24675E-04   282   0.842E-02    0.346E-03
DAV:   2    -0.129378740153E+03   -0.68737E-06   -0.10192E-05   210   0.174E-02    0.226E-03
DAV:   3    -0.129378740161E+03   -0.86870E-08   -0.10006E-06   169   0.559E-03    0.150E-03
DAV:   4    -0.129378740106E+03    0.55153E-07   -0.25768E-07   252   0.302E-03    0.384E-04
DAV:   5    -0.129378740117E+03   -0.10819E-07   -0.39684E-08   164   0.147E-03    0.248E-04
DAV:   6    -0.129378740157E+03   -0.40424E-07    0.15179E-08   164   0.807E-04
  55 F= -.12937874E+03 E0= -.12937874E+03  d E =-.505028E-04
       N       E                     dE             d eps       ncg     rms          rms(c)
DAV:   1    -0.129378796340E+03   -0.56223E-04   -0.31811E-04   265   0.951E-02    0.381E-03
DAV:   2    -0.129378797238E+03   -0.89798E-06   -0.12513E-05   200   0.193E-02    0.246E-03
DAV:   3    -0.129378797274E+03   -0.36089E-07   -0.12188E-06   164   0.618E-03    0.162E-03
DAV:   4    -0.129378797244E+03    0.29961E-07   -0.31015E-07   187   0.328E-03    0.396E-04
DAV:   5    -0.129378797266E+03   -0.22143E-07   -0.55548E-08   164   0.160E-03    0.265E-04
DAV:   6    -0.129378797317E+03   -0.50901E-07    0.98225E-09   167   0.868E-04
  56 F= -.12937880E+03 E0= -.12937880E+03  d E =-.571598E-04
       N       E                     dE             d eps       ncg     rms          rms(c)
DAV:   1    -0.129378867359E+03   -0.70093E-04   -0.48121E-04   294   0.116E-01    0.455E-03
DAV:   2    -0.129378868301E+03   -0.94185E-06   -0.13802E-05   200   0.186E-02    0.292E-03
DAV:   3    -0.129378868346E+03   -0.44502E-07   -0.13870E-06   164   0.627E-03    0.180E-03
DAV:   4    -0.129378868354E+03   -0.85183E-08   -0.37265E-07   165   0.343E-03    0.441E-04
DAV:   5    -0.129378868390E+03   -0.36021E-07   -0.77232E-08   164   0.175E-03    0.273E-04
DAV:   6    -0.129378868455E+03   -0.64540E-07    0.22022E-09   167   0.921E-04
  57 F= -.12937887E+03 E0= -.12937887E+03  d E =-.711378E-04
       N       E                     dE             d eps       ncg     rms          rms(c)
DAV:   1    -0.129378956236E+03   -0.87845E-04   -0.70787E-04   294   0.139E-01    0.536E-03
DAV:   2    -0.129378957561E+03   -0.13254E-05   -0.18293E-05   200   0.213E-02    0.335E-03
DAV:   3    -0.129378957677E+03   -0.11622E-06   -0.18142E-06   164   0.717E-03    0.200E-03
DAV:   4    -0.129378957760E+03   -0.83025E-07   -0.47581E-07   164   0.382E-03    0.450E-04
DAV:   5    -0.129378957814E+03   -0.53598E-07   -0.11208E-07   164   0.194E-03    0.279E-04
DAV:   6    -0.129378957884E+03   -0.70183E-07   -0.89355E-09   184   0.983E-04
  58 F= -.12937896E+03 E0= -.12937896E+03  d E =-.894294E-04
       N       E                     dE             d eps       ncg     rms          rms(c)
DAV:   1    -0.129379069481E+03   -0.11167E-03   -0.10463E-03   296   0.167E-01    0.637E-03
DAV:   2    -0.129379071351E+03   -0.18706E-05   -0.24641E-05   200   0.244E-02    0.390E-03
DAV:   3    -0.129379071582E+03   -0.23052E-06   -0.24037E-06   164   0.823E-03    0.223E-03
DAV:   4    -0.129379071772E+03   -0.19032E-06   -0.61775E-07   164   0.426E-03    0.444E-04
DAV:   5    -0.129379071845E+03   -0.72321E-07   -0.15964E-07   164   0.213E-03    0.271E-04
DAV:   6    -0.129379071915E+03   -0.70549E-07   -0.24273E-08   202   0.105E-03
  59 F= -.12937907E+03 E0= -.12937907E+03  d E =-.114031E-03
