 vasp.5.4.1 24Jun15 (build Jan 13 2020 12:58:22) complex                        
  
 executed on           IFC91_ompi date 2020.02.03  09:59:13
 running on   15 total cores
 each image running on    1 cores
 distrk:  each k-point on    1 cores,    1 groups
 distr:  one band on NCORES_PER_BAND=   1 cores,    1 groups


--------------------------------------------------------------------------------------------------------


 INCAR:
 POTCAR:    PAW_PBE H 15Jun2001                   
 POTCAR:    PAW_PBE C 08Apr2002                   
 POTCAR:    PAW_PBE N 08Apr2002                   
 POTCAR:    PAW_PBE O 08Apr2002                   
 POTCAR:    PAW_PBE H 15Jun2001                   
   VRHFIN =H: ultrasoft test                                                    
   LEXCH  = PE                                                                  
   EATOM  =    12.4884 eV,    0.9179 Ry                                         
                                                                                
   TITEL  = PAW_PBE H 15Jun2001                                                 
   LULTRA =        F    use ultrasoft PP ?                                      
   IUNSCR =        0    unscreen: 0-lin 1-nonlin 2-no                           
   RPACOR =    0.000    partial core radius                                     
   POMASS =    1.000; ZVAL   =    1.000    mass and valenz                      
   RCORE  =    1.100    outmost cutoff radius                                   
   RWIGS  =    0.700; RWIGS  =    0.370    wigner-seitz radius (au A)           
   ENMAX  =  250.000; ENMIN  =  200.000 eV                                      
   RCLOC  =    0.701    cutoff for local pot                                    
   LCOR   =        T    correct aug charges                                     
   LPAW   =        T    paw PP                                                  
   EAUG   =  400.000                                                            
   RMAX   =    1.123    core radius for proj-oper                               
   RAUG   =    1.200    factor for augmentation sphere                          
   RDEP   =    1.112    radius for radial grids                                 
   RDEPT  =    0.926    core radius for aug-charge                              
                                                                                
   Atomic configuration                                                         
    2 entries                                                                   
     n  l   j            E        occ.                                          
     1  0  0.50        -6.4927   1.0000                                         
     2  1  0.50        -3.4015   0.0000                                         
   Description                                                                  
     l       E           TYP  RCUT    TYP  RCUT                                 
     0     -6.4927494     23  1.100                                             
     0      6.8029130     23  1.100                                             
     1     -4.0817478     23  1.100                                             
  local pseudopotential read in
  atomic valenz-charges read in
  non local Contribution for L=           0  read in
    real space projection operators read in
  non local Contribution for L=           0  read in
    real space projection operators read in
  non local Contribution for L=           1  read in
    real space projection operators read in
    PAW grid and wavefunctions read in
 
   number of l-projection  operators is LMAX  =           3
   number of lm-projection operators is LMMAX =           5
 
 POTCAR:    PAW_PBE C 08Apr2002                   
   VRHFIN =C: s2p2                                                              
   LEXCH  = PE                                                                  
   EATOM  =   147.1560 eV,   10.8157 Ry                                         
                                                                                
   TITEL  = PAW_PBE C 08Apr2002                                                 
   LULTRA =        F    use ultrasoft PP ?                                      
   IUNSCR =        1    unscreen: 0-lin 1-nonlin 2-no                           
   RPACOR =    1.200    partial core radius                                     
   POMASS =   12.011; ZVAL   =    4.000    mass and valenz                      
   RCORE  =    1.500    outmost cutoff radius                                   
   RWIGS  =    1.630; RWIGS  =    0.863    wigner-seitz radius (au A)           
   ENMAX  =  400.000; ENMIN  =  300.000 eV                                      
   ICORE  =        2    local potential                                         
   LCOR   =        T    correct aug charges                                     
   LPAW   =        T    paw PP                                                  
   EAUG   =  644.873                                                            
   DEXC   =    0.000                                                            
   RMAX   =    1.529    core radius for proj-oper                               
   RAUG   =    1.300    factor for augmentation sphere                          
   RDEP   =    1.501    radius for radial grids                                 
   RDEPT  =    1.300    core radius for aug-charge                              
                                                                                
   Atomic configuration                                                         
    4 entries                                                                   
     n  l   j            E        occ.                                          
     1  0  0.50      -273.3789   2.0000                                         
     2  0  0.50       -13.7508   2.0000                                         
     2  1  0.50        -5.2854   2.0000                                         
     3  2  1.50        -5.4423   0.0000                                         
   Description                                                                  
     l       E           TYP  RCUT    TYP  RCUT                                 
     0    -13.7508458     23  1.200                                             
     0     -8.2022199     23  1.200                                             
     1     -5.2854383     23  1.500                                             
     1     34.0145650     23  1.500                                             
     2     -5.4423304      7  1.500                                             
  local pseudopotential read in
  partial core-charges read in
  partial kinetic energy density read in
  atomic valenz-charges read in
  non local Contribution for L=           0  read in
    real space projection operators read in
  non local Contribution for L=           0  read in
    real space projection operators read in
  non local Contribution for L=           1  read in
    real space projection operators read in
  non local Contribution for L=           1  read in
    real space projection operators read in
    PAW grid and wavefunctions read in
 
   number of l-projection  operators is LMAX  =           4
   number of lm-projection operators is LMMAX =           8
 
 POTCAR:    PAW_PBE N 08Apr2002                   
   VRHFIN =N: s2p3                                                              
   LEXCH  = PE                                                                  
   EATOM  =   264.5486 eV,   19.4438 Ry                                         
                                                                                
   TITEL  = PAW_PBE N 08Apr2002                                                 
   LULTRA =        F    use ultrasoft PP ?                                      
   IUNSCR =        1    unscreen: 0-lin 1-nonlin 2-no                           
   RPACOR =    1.200    partial core radius                                     
   POMASS =   14.001; ZVAL   =    5.000    mass and valenz                      
   RCORE  =    1.500    outmost cutoff radius                                   
   RWIGS  =    1.400; RWIGS  =    0.741    wigner-seitz radius (au A)           
   ENMAX  =  400.000; ENMIN  =  300.000 eV                                      
   ICORE  =        2    local potential                                         
   LCOR   =        T    correct aug charges                                     
   LPAW   =        T    paw PP                                                  
   EAUG   =  627.112                                                            
   DEXC   =    0.000                                                            
   RMAX   =    1.529    core radius for proj-oper                               
   RAUG   =    1.300    factor for augmentation sphere                          
   RDEP   =    1.514    radius for radial grids                                 
   RDEPT  =    1.338    core radius for aug-charge                              
                                                                                
   Atomic configuration                                                         
    4 entries                                                                   
     n  l   j            E        occ.                                          
     1  0  0.50      -384.7179   2.0000                                         
     2  0  0.50       -18.5828   2.0000                                         
     2  1  0.50        -7.0898   3.0000                                         
     3  2  1.50        -6.8029   0.0000                                         
   Description                                                                  
     l       E           TYP  RCUT    TYP  RCUT                                 
     0    -18.5828119     23  1.200                                             
     0    -13.5018863     23  1.200                                             
     1     -7.0897853     23  1.500                                             
     1      9.5240782     23  1.500                                             
     2     -6.8029130      7  1.500                                             
  local pseudopotential read in
  partial core-charges read in
  partial kinetic energy density read in
  atomic valenz-charges read in
  non local Contribution for L=           0  read in
    real space projection operators read in
  non local Contribution for L=           0  read in
    real space projection operators read in
  non local Contribution for L=           1  read in
    real space projection operators read in
  non local Contribution for L=           1  read in
    real space projection operators read in
    PAW grid and wavefunctions read in
 
   number of l-projection  operators is LMAX  =           4
   number of lm-projection operators is LMMAX =           8
 
 POTCAR:    PAW_PBE O 08Apr2002                   
   VRHFIN =O: s2p4                                                              
   LEXCH  = PE                                                                  
   EATOM  =   432.3788 eV,   31.7789 Ry                                         
                                                                                
   TITEL  = PAW_PBE O 08Apr2002                                                 
   LULTRA =        F    use ultrasoft PP ?                                      
   IUNSCR =        1    unscreen: 0-lin 1-nonlin 2-no                           
   RPACOR =    1.200    partial core radius                                     
   POMASS =   16.000; ZVAL   =    6.000    mass and valenz                      
   RCORE  =    1.520    outmost cutoff radius                                   
   RWIGS  =    1.550; RWIGS  =    0.820    wigner-seitz radius (au A)           
   ENMAX  =  400.000; ENMIN  =  300.000 eV                                      
   ICORE  =        2    local potential                                         
   LCOR   =        T    correct aug charges                                     
   LPAW   =        T    paw PP                                                  
   EAUG   =  605.392                                                            
   DEXC   =    0.000                                                            
   RMAX   =    1.553    core radius for proj-oper                               
   RAUG   =    1.300    factor for augmentation sphere                          
   RDEP   =    1.550    radius for radial grids                                 
   RDEPT  =    1.329    core radius for aug-charge                              
                                                                                
   Atomic configuration                                                         
    4 entries                                                                   
     n  l   j            E        occ.                                          
     1  0  0.50      -514.6923   2.0000                                         
     2  0  0.50       -23.9615   2.0000                                         
     2  1  0.50        -9.0305   4.0000                                         
     3  2  1.50        -9.5241   0.0000                                         
   Description                                                                  
     l       E           TYP  RCUT    TYP  RCUT                                 
     0    -23.9615318     23  1.200                                             
     0     -9.5240782     23  1.200                                             
     1     -9.0304911     23  1.520                                             
     1      8.1634956     23  1.520                                             
     2     -9.5240782      7  1.500                                             
  local pseudopotential read in
  partial core-charges read in
  partial kinetic energy density read in
  kinetic energy density of atom read in
  atomic valenz-charges read in
  non local Contribution for L=           0  read in
    real space projection operators read in
  non local Contribution for L=           0  read in
    real space projection operators read in
  non local Contribution for L=           1  read in
    real space projection operators read in
  non local Contribution for L=           1  read in
    real space projection operators read in
    PAW grid and wavefunctions read in
 
   number of l-projection  operators is LMAX  =           4
   number of lm-projection operators is LMMAX =           8
 
 Optimization of the real space projectors (new method)

 maximal supplied QI-value         = 34.20
 optimisation between [QCUT,QGAM] = [  9.92, 20.18] = [ 27.55,114.04] Ry 
 Optimized for a Real-space Cutoff    1.26 Angstroem

   l    n(q)    QCUT    max X(q) W(low)/X(q) W(high)/X(q)  e(spline) 
   0      8     9.919    19.460    0.50E-03    0.23E-03    0.29E-06
   0      8     9.919    12.209    0.48E-03    0.23E-03    0.28E-06
   1      7     9.919     4.655    0.17E-03    0.75E-03    0.30E-06
 Optimization of the real space projectors (new method)

 maximal supplied QI-value         = 25.13
 optimisation between [QCUT,QGAM] = [ 10.05, 20.36] = [ 28.30,116.06] Ry 
 Optimized for a Real-space Cutoff    1.30 Angstroem

   l    n(q)    QCUT    max X(q) W(low)/X(q) W(high)/X(q)  e(spline) 
   0      8    10.053   115.676    0.49E-03    0.72E-03    0.18E-06
   0      8    10.053    87.132    0.49E-03    0.71E-03    0.18E-06
   1      7    10.053     4.429    0.32E-03    0.31E-03    0.18E-06
   1      7    10.053     2.733    0.23E-03    0.19E-03    0.20E-06
 Optimization of the real space projectors (new method)

 maximal supplied QI-value         = 25.13
 optimisation between [QCUT,QGAM] = [ 10.05, 20.36] = [ 28.30,116.06] Ry 
 Optimized for a Real-space Cutoff    1.65 Angstroem

   l    n(q)    QCUT    max X(q) W(low)/X(q) W(high)/X(q)  e(spline) 
   0     10    10.053    79.467    0.76E-04    0.72E-04    0.56E-06
   0     10    10.053    66.151    0.76E-04    0.72E-04    0.55E-06
   1     10    10.053     8.350    0.25E-03    0.92E-03    0.41E-05
   1     10    10.053     5.531    0.27E-03    0.10E-02    0.45E-05
 Optimization of the real space projectors (new method)

 maximal supplied QI-value         = 24.76
 optimisation between [QCUT,QGAM] = [ 10.15, 20.30] = [ 28.85,115.39] Ry 
 Optimized for a Real-space Cutoff    1.38 Angstroem

   l    n(q)    QCUT    max X(q) W(low)/X(q) W(high)/X(q)  e(spline) 
   0      8    10.150    20.381    0.22E-03    0.32E-03    0.29E-06
   0      8    10.150    15.268    0.23E-03    0.35E-03    0.30E-06
   1      8    10.150     5.964    0.46E-03    0.53E-03    0.21E-06
   1      8    10.150     5.382    0.38E-03    0.45E-03    0.19E-06
  PAW_PBE H 15Jun2001                   :
 energy of atom  1       EATOM=  -12.4884
 kinetic energy error for atom=    0.0098 (will be added to EATOM!!)
  PAW_PBE C 08Apr2002                   :
 energy of atom  2       EATOM= -147.1560
 kinetic energy error for atom=    0.0288 (will be added to EATOM!!)
  PAW_PBE N 08Apr2002                   :
 energy of atom  3       EATOM= -264.5486
 kinetic energy error for atom=    0.0736 (will be added to EATOM!!)
  PAW_PBE O 08Apr2002                   :
 energy of atom  4       EATOM= -432.3788
 kinetic energy error for atom=    0.1156 (will be added to EATOM!!)
 
 
 POSCAR: H12 C6 N2 O2                            
  positions in direct lattice
  velocities in cartesian coordinates
 exchange correlation table for  LEXCH =        8
   RHO(1)=    0.500       N(1)  =     2000
   RHO(2)=  100.500       N(2)  =     4000

 VTST: version 3.2, (02/03/18)

 CHAIN: initializing optimizer
 
 OPT: Using FIRE optimizer
 OPT: FIRE, Init
 OPT: FIRE, MAXMOVE       0.20000
 OPT: FIRE, TIMESTEP      0.10000
 OPT: FIRE, FTIMEMAX      1.00000
 OPT: FIRE, FTIMEINC      1.10000
 OPT: FIRE, FTIMEDEC      0.50000
 OPT: FIRE, FALPHADEC     0.99000
 OPT: FIRE, FALPHA        0.10000
 OPT: FIRE, FNMIN         5
 
 CHAIN: Read ICHAIN            0
 CHAIN: Running the NEB
 NEB:          SPRING     -5.000000
 NEB:          LCLIMB      T
 NEB:     LTANGENTOLD      F
 NEB:           LDNEB      F
 NEB:        LDNEBORG      F
 NEB:        LNEBCELL      F
 NEB:          EFIRST      0.000000
 NEB:           ELAST      0.000000
 
 POSCAR: H12 C6 N2 O2                            
  positions in direct lattice
  No initial velocities read in
 
 POSCAR: H12 C6 N2 O2                            
  positions in direct lattice
  No initial velocities read in
 


--------------------------------------------------------------------------------------------------------


 ion  position               nearest neighbor table
   1  0.376  0.535  0.497-  13 1.09
   2  0.380  0.487  0.462-  13 1.10
   3  0.381  0.481  0.520-  13 1.10
   4  0.445  0.442  0.498-  19 1.02
   5  0.515  0.426  0.514-  15 1.10
   6  0.570  0.455  0.454-  16 1.10
   7  0.526  0.490  0.434-  16 1.10
   8  0.521  0.430  0.432-  16 1.10
   9  0.509  0.544  0.509-  20 1.04
  10  0.597  0.543  0.557-  18 1.09
  11  0.589  0.575  0.507-  18 1.10
  12  0.562  0.592  0.557-  18 1.10
  13  0.391  0.502  0.493-   1 1.09   3 1.10   2 1.10  14 1.51
  14  0.441  0.508  0.491-  21 1.24  19 1.36  13 1.51
  15  0.513  0.460  0.498-   5 1.10  19 1.48  16 1.54  17 1.55
  16  0.533  0.459  0.452-   7 1.10   8 1.10   6 1.10  15 1.54
  17  0.543  0.489  0.528-  22 1.24  20 1.35  15 1.55
  18  0.573  0.563  0.538-  10 1.09  12 1.10  11 1.10  20 1.45
  19  0.464  0.470  0.498-   4 1.02  14 1.36  15 1.48
  20  0.536  0.533  0.528-   9 1.04  17 1.35  18 1.45
  21  0.459  0.545  0.485-  14 1.24
  22  0.576  0.471  0.546-  17 1.24
 
  LATTYP: Found a simple cubic cell.
 ALAT       =    30.0000000000
  
  Lattice vectors:
  
 A1 = (  30.0000000000,   0.0000000000,   0.0000000000)
 A2 = (   0.0000000000,  30.0000000000,   0.0000000000)
 A3 = (   0.0000000000,   0.0000000000,  30.0000000000)


Analysis of symmetry for initial positions (statically):
=====================================================================
 Subroutine PRICEL returns:
 Original cell was already a primitive cell.
 

 Routine SETGRP: Setting up the symmetry group for a 
 simple cubic supercell.


 Subroutine GETGRP returns: Found  1 space group operations
 (whereof  1 operations were pure point group operations)
 out of a pool of 48 trial point group operations.


The static configuration has the point symmetry C_1 .


Analysis of symmetry for dynamics (positions and initial velocities):
=====================================================================
 Subroutine PRICEL returns:
 Original cell was already a primitive cell.
 

 Routine SETGRP: Setting up the symmetry group for a 
 simple cubic supercell.


 Subroutine GETGRP returns: Found  1 space group operations
 (whereof  1 operations were pure point group operations)
 out of a pool of 48 trial point group operations.


The dynamic configuration has the point symmetry C_1 .
 
 
 KPOINTS: Mo2C                                    

Automatic generation of k-mesh.
Space group operators:
 irot       det(A)        alpha          n_x          n_y          n_z        tau_x        tau_y        tau_z
    1     1.000000     0.000000     1.000000     0.000000     0.000000     0.000000     0.000000     0.000000
 
 Subroutine IBZKPT returns following result:
 ===========================================
 
 Found      4 irreducible k-points:
 
 Following reciprocal coordinates:
            Coordinates               Weight
  0.250000  0.250000  0.250000      2.000000
 -0.250000  0.250000  0.250000      2.000000
  0.250000 -0.250000  0.250000      2.000000
 -0.250000 -0.250000  0.250000      2.000000
 
 Following cartesian coordinates:
            Coordinates               Weight
  0.008333  0.008333  0.008333      2.000000
 -0.008333  0.008333  0.008333      2.000000
  0.008333 -0.008333  0.008333      2.000000
 -0.008333 -0.008333  0.008333      2.000000
 


--------------------------------------------------------------------------------------------------------




 Dimension of arrays:
   k-points           NKPTS =      4   k-points in BZ     NKDIM =      4   number of bands    NBANDS=     41
   number of dos      NEDOS =    301   number of ions     NIONS =     22
   non local maximal  LDIM  =      4   non local SUM 2l+1 LMDIM =      8
   total plane-waves  NPLWV = ******
   max r-space proj   IRMAX =   2395   max aug-charges    IRDMAX=   1821
   dimension x,y,z NGX =   150 NGY =  150 NGZ =  150
   dimension x,y,z NGXF=   300 NGYF=  300 NGZF=  300
   support grid    NGXF=   300 NGYF=  300 NGZF=  300
   ions per type =              12   6   2   2
 NGX,Y,Z   is equivalent  to a cutoff of   8.31,  8.31,  8.31 a.u.
 NGXF,Y,Z  is equivalent  to a cutoff of  16.62, 16.62, 16.62 a.u.


 I would recommend the setting:
   dimension x,y,z NGX =   147 NGY =  147 NGZ =  147
 SYSTEM =  unknown system                          
 POSCAR =  H12 C6 N2 O2                            

 Startparameter for this run:
   NWRITE =      2    write-flag & timer
   PREC   = normal    normal or accurate (medium, high low for compatibility)
   ISTART =      0    job   : 0-new  1-cont  2-samecut
   ICHARG =      2    charge: 1-file 2-atom 10-const
   ISPIN  =      1    spin polarized calculation?
   LNONCOLLINEAR =      F non collinear calculations
   LSORBIT =      F    spin-orbit coupling
   INIWAV =      1    electr: 0-lowe 1-rand  2-diag
   LASPH  =      F    aspherical Exc in radial PAW
   METAGGA=      F    non-selfconsistent MetaGGA calc.

 Electronic Relaxation 1
   ENCUT  =  400.0 eV  29.40 Ry    5.42 a.u.  48.92 48.92 48.92*2*pi/ulx,y,z
   ENINI  =  400.0     initial cutoff
   ENAUG  =  644.9 eV  augmentation charge cutoff
   NELM   =    500;   NELMIN=  6; NELMDL= -5     # of ELM steps 
   EDIFF  = 0.1E-03   stopping-criterion for ELM
   LREAL  =      T    real-space projection
   NLSPLINE    = F    spline interpolate recip. space projectors
   LCOMPAT=      F    compatible to vasp.4.4
   GGA_COMPAT  = T    GGA compatible to vasp.4.4-vasp.4.6
   LMAXPAW     = -100 max onsite density
   LMAXMIX     =    2 max onsite mixed and CHGCAR
   VOSKOWN=      0    Vosko Wilk Nusair interpolation
   ROPT   =   -0.00050  -0.00050  -0.00050  -0.00050
 Ionic relaxation
   EDIFFG = -.1E+00   stopping-criterion for IOM
   NSW    =    300    number of steps for IOM
   NBLOCK =      1;   KBLOCK =    300    inner block; outer block 
   IBRION =      3    ionic relax: 0-MD 1-quasi-New 2-CG
   NFREE  =      0    steps in history (QN), initial steepest desc. (CG)
   ISIF   =      2    stress and relaxation
   IWAVPR =     11    prediction:  0-non 1-charg 2-wave 3-comb
   ISYM   =      2    0-nonsym 1-usesym 2-fastsym
   LCORR  =      T    Harris-Foulkes like correction to forces

   POTIM  = 0.0000    time-step for ionic-motion
   TEIN   =    0.0    initial temperature
   TEBEG  =    0.0;   TEEND  =   0.0 temperature during run
   SMASS  =   2.00    Nose mass-parameter (am)
   estimated Nose-frequenzy (Omega)   =  0.24E+10 period in steps =  0.00 mass=   0.137E-25a.u.
   SCALEE = 1.0000    scale energy and forces
   NPACO  =    256;   APACO  = 16.0  distance and # of slots for P.C.
   PSTRESS=    0.0 pullay stress

  Mass of Ions in am
   POMASS =   1.00 12.01 14.00 16.00
  Ionic Valenz
   ZVAL   =   1.00  4.00  5.00  6.00
  Atomic Wigner-Seitz radii
   RWIGS  =  -1.00 -1.00 -1.00 -1.00
  virtual crystal weights 
   VCA    =   1.00  1.00  1.00  1.00
   NELECT =      58.0000    total number of electrons
   NUPDOWN=      -1.0000    fix difference up-down

 DOS related values:
   EMIN   =  10.00;   EMAX   =-10.00  energy-range for DOS
   EFERMI =   0.00
   ISMEAR =     0;   SIGMA  =   0.20  broadening in eV -4-tet -1-fermi 0-gaus

 Electronic relaxation 2 (details)
   IALGO  =     38    algorithm
   LDIAG  =      T    sub-space diagonalisation (order eigenvalues)
   LSUBROT=      F    optimize rotation matrix (better conditioning)
   TURBO    =      0    0=normal 1=particle mesh
   IRESTART =      0    0=no restart 2=restart with 2 vectors
   NREBOOT  =      0    no. of reboots
   NMIN     =      0    reboot dimension
   EREF     =   0.00    reference energy to select bands
   IMIX   =      4    mixing-type and parameters
     AMIX     =   0.40;   BMIX     =  1.00
     AMIX_MAG =   1.60;   BMIX_MAG =  1.00
     AMIN     =   0.10
     WC   =   100.;   INIMIX=   1;  MIXPRE=   1;  MAXMIX= -45

 Intra band minimization:
   WEIMIN = 0.0010     energy-eigenvalue tresh-hold
   EBREAK =  0.61E-06  absolut break condition
   DEPER  =   0.30     relativ break condition  

   TIME   =   0.40     timestep for ELM

  volume/ion in A,a.u.               =    1227.27      8282.05
  Fermi-wavevector in a.u.,A,eV,Ry     =   0.211234  0.399174  0.607087  0.044620
  Thomas-Fermi vector in A             =   0.980021
 
 Write flags
   LWAVE  =      F    write WAVECAR
   LCHARG =      F    write CHGCAR
   LVTOT  =      F    write LOCPOT, total local potential
   LVHAR  =      F    write LOCPOT, Hartree potential only
   LELF   =      F    write electronic localiz. function (ELF)
   LORBIT =      0    0 simple, 1 ext, 2 COOP (PROOUT)


 Dipole corrections
   LMONO  =      F    monopole corrections only (constant potential shift)
   LDIPOL =      F    correct potential (dipole corrections)
   IDIPOL =      0    1-x, 2-y, 3-z, 4-all directions 
   EPSILON=  1.0000000 bulk dielectric constant

 Exchange correlation treatment:
   GGA     =    PE    GGA type
   LEXCH   =     8    internal setting for exchange type
   VOSKOWN=      0    Vosko Wilk Nusair interpolation
   LHFCALC =     F    Hartree Fock is set to
   LHFONE  =     F    Hartree Fock one center treatment
   AEXX    =    0.0000 exact exchange contribution

 Linear response parameters
   LEPSILON=     F    determine dielectric tensor
   LRPA    =     F    only Hartree local field effects (RPA)
   LNABLA  =     F    use nabla operator in PAW spheres
   LVEL    =     F    velocity operator in full k-point grid
   LINTERFAST=   F  fast interpolation
   KINTER  =     0    interpolate to denser k-point grid
   CSHIFT  =0.1000    complex shift for real part using Kramers Kronig
   OMEGAMAX=  -1.0    maximum frequency
   DEG_THRESHOLD= 0.2000000E-02 threshold for treating states as degnerate
   RTIME   =    0.100 relaxation time in fs

 Orbital magnetization related:
   ORBITALMAG=     F  switch on orbital magnetization
   LCHIMAG   =     F  perturbation theory with respect to B field
   DQ        =  0.001000  dq finite difference perturbation B field



--------------------------------------------------------------------------------------------------------


 quickmin algorithm: (dynamic with friction)
 charge density and potential will be updated during run
 non-spin polarized calculation
 Variant of blocked Davidson
 Davidson routine will perform the subspace rotation
 perform sub-space diagonalisation
    after iterative eigenvector-optimisation
 modified Broyden-mixing scheme, WC =      100.0
 initial mixing is a Kerker type mixing with AMIX =  0.4000 and BMIX =      1.0000
 Hartree-type preconditioning will be used
 using additional bands           12
 real space projection scheme for non local part
 use partial core corrections
 calculate Harris-corrections to forces 
   (improved forces if not selfconsistent)
 use gradient corrections 
 use of overlap-Matrix (Vanderbilt PP)
 Gauss-broadening in eV      SIGMA  =   0.20


--------------------------------------------------------------------------------------------------------


  energy-cutoff  :      400.00
  volume of cell :    27000.00
      direct lattice vectors                 reciprocal lattice vectors
    30.000000000  0.000000000  0.000000000     0.033333333  0.000000000  0.000000000
     0.000000000 30.000000000  0.000000000     0.000000000  0.033333333  0.000000000
     0.000000000  0.000000000 30.000000000     0.000000000  0.000000000  0.033333333

  length of vectors
    30.000000000 30.000000000 30.000000000     0.033333333  0.033333333  0.033333333


 
 k-points in units of 2pi/SCALE and weight: Mo2C                                    
   0.00833333  0.00833333  0.00833333       0.250
  -0.00833333  0.00833333  0.00833333       0.250
   0.00833333 -0.00833333  0.00833333       0.250
  -0.00833333 -0.00833333  0.00833333       0.250
 
 k-points in reciprocal lattice and weights: Mo2C                                    
   0.25000000  0.25000000  0.25000000       0.250
  -0.25000000  0.25000000  0.25000000       0.250
   0.25000000 -0.25000000  0.25000000       0.250
  -0.25000000 -0.25000000  0.25000000       0.250
 
 position of ions in fractional coordinates (direct lattice) 
   0.37587919  0.53491229  0.49656336
   0.38001367  0.48702028  0.46150670
   0.38134363  0.48053165  0.52042871
   0.44466110  0.44197399  0.49813460
   0.51532152  0.42631744  0.51371487
   0.56962856  0.45537120  0.45425925
   0.52573525  0.48956176  0.43354266
   0.52094125  0.43022181  0.43203057
   0.50893426  0.54441145  0.50927653
   0.59707911  0.54343992  0.55720774
   0.58900963  0.57459122  0.50732907
   0.56233059  0.59243929  0.55748292
   0.39146226  0.50222254  0.49277539
   0.44141833  0.50807718  0.49145117
   0.51269760  0.45967064  0.49848521
   0.53322729  0.45866882  0.45157496
   0.54336712  0.48893111  0.52814990
   0.57282969  0.56309873  0.53832426
   0.46436549  0.46954055  0.49841382
   0.53618352  0.53344746  0.52771755
   0.45873389  0.54522397  0.48509901
   0.57566192  0.47057773  0.54628735
 
 position of ions in cartesian coordinates  (Angst):
  11.27637585 16.04736878 14.89690079
  11.40040998 14.61060828 13.84520095
  11.44030884 14.41594962 15.61286118
  13.33983300 13.25921980 14.94403795
  15.45964558 12.78952317 15.41144597
  17.08885678 13.66113599 13.62777750
  15.77205765 14.68685286 13.00627988
  15.62823755 12.90665439 12.96091711
  15.26802778 16.33234358 15.27829597
  17.91237337 16.30319749 16.71623208
  17.67028889 17.23773646 15.21987221
  16.86991774 17.77317856 16.72448762
  11.74386767 15.06667626 14.78326177
  13.24255001 15.24231534 14.74353506
  15.38092807 13.79011906 14.95455640
  15.99681870 13.76006469 13.54724889
  16.30101353 14.66793330 15.84449713
  17.18489082 16.89296200 16.14972783
  13.93096462 14.08621657 14.95241450
  16.08550563 16.00342390 15.83152640
  13.76201683 16.35671912 14.55297042
  17.26985773 14.11733189 16.38862042
 


--------------------------------------------------------------------------------------------------------


 k-point  1 :   0.2500 0.2500 0.2500  plane waves:  490454
 k-point  2 :  -0.2500 0.2500 0.2500  plane waves:  490454
 k-point  3 :   0.2500-0.2500 0.2500  plane waves:  490454
 k-point  4 :  -0.2500-0.2500 0.2500  plane waves:  490454

 maximum and minimum number of plane-waves per node :    490454   490454

 maximum number of plane-waves:    490454
 maximum index in each direction: 
   IXMAX=   49   IYMAX=   49   IZMAX=   48
   IXMIN=  -49   IYMIN=  -49   IZMIN=  -49

 WARNING: aliasing errors must be expected set NGX to 198 to avoid them
 WARNING: aliasing errors must be expected set NGY to 198 to avoid them
 WARNING: aliasing errors must be expected set NGZ to 196 to avoid them
 aliasing errors are usually negligible using standard VASP settings
 and one can safely disregard these warnings

 serial   3D FFT for wavefunctions
 parallel 3D FFT for charge:
    minimum data exchange during FFTs selected (reduces bandwidth)


 total amount of memory used by VASP on root node  4333710. kBytes
========================================================================

   base      :      30000. kBytes
   nonlr-proj:       2405. kBytes
   fftplans  :     924480. kBytes
   grid      :    2089440. kBytes
   one-center:         67. kBytes
   wavefun   :    1287318. kBytes
 
     INWAV:  cpu time    0.0010: real time    0.0003
 Broyden mixing: mesh for mixing (old mesh)
   NGX = 97   NGY = 97   NGZ = 97
  (NGX  =300   NGY  =300   NGZ  =300)
  gives a total of 912673 points

 initial charge density was supplied:
 charge density of overlapping atoms calculated
 number of electron      58.0000000 magnetization 
 keeping initial charge density in first step


--------------------------------------------------------------------------------------------------------


 Maximum index for non-local projection operator         2283
 Maximum index for augmentation-charges         1573 (set IRDMAX)


--------------------------------------------------------------------------------------------------------


 First call to EWALD:  gamma=   0.059
 Maximum number of real-space cells 3x 3x 3
 Maximum number of reciprocal cells 3x 3x 3

 FEWALD executed in parallel
    FEWALD:  cpu time    0.0040: real time    0.0047


----------------------------------------- Iteration    1(   1)  ---------------------------------------


    POTLOK:  cpu time   19.2791: real time   19.2630
    SETDIJ:  cpu time    0.0280: real time    0.0281
     EDDAV:  cpu time  257.1159: real time  256.9021
       DOS:  cpu time    0.0000: real time    0.0009
    --------------------------------------------
      LOOP:  cpu time  276.4260: real time  276.1987

 eigenvalue-minimisations  :   408
 total energy-change (2. order) : 0.5796856E+03  (-0.8286079E+03)
 number of electron      58.0000000 magnetization 
 augmentation part       58.0000000 magnetization 

 Free energy of the ion-electron system (eV)
  ---------------------------------------------------
  alpha Z        PSCENC =         0.51957394
  Ewald energy   TEWEN  =      6130.81913532
  -Hartree energ DENC   =     -7872.85277016
  -exchange      EXHF   =         0.00000000
  -V(xc)+E(xc)   XCENC  =       202.16624685
  PAW double counting   =      1779.70502452    -1789.20730229
  entropy T*S    EENTRO =        -0.79241557
  eigenvalues    EBANDS =      -296.65525875
  atomic energy  EATOM  =      2425.98333211
  Solvation  Ediel_sol  =         0.00000000
  ---------------------------------------------------
  free energy    TOTEN  =       579.68556596 eV

  energy without entropy =      580.47798153  energy(sigma->0) =      580.08177375


--------------------------------------------------------------------------------------------------------




----------------------------------------- Iteration    1(   2)  ---------------------------------------


     EDDAV:  cpu time  342.8849: real time  342.5997
       DOS:  cpu time    0.0000: real time    0.0007
    --------------------------------------------
      LOOP:  cpu time  342.8869: real time  342.6030

 eigenvalue-minimisations  :   580
 total energy-change (2. order) :-0.3344685E+03  (-0.3237005E+03)
 number of electron      58.0000000 magnetization 
 augmentation part       58.0000000 magnetization 

 Free energy of the ion-electron system (eV)
  ---------------------------------------------------
  alpha Z        PSCENC =         0.51957394
  Ewald energy   TEWEN  =      6130.81913532
  -Hartree energ DENC   =     -7872.85277016
  -exchange      EXHF   =         0.00000000
  -V(xc)+E(xc)   XCENC  =       202.16624685
  PAW double counting   =      1779.70502452    -1789.20730229
  entropy T*S    EENTRO =        -0.38629796
  eigenvalues    EBANDS =      -631.52983768
  atomic energy  EATOM  =      2425.98333211
  Solvation  Ediel_sol  =         0.00000000
  ---------------------------------------------------
  free energy    TOTEN  =       245.21710465 eV

  energy without entropy =      245.60340260  energy(sigma->0) =      245.41025363


--------------------------------------------------------------------------------------------------------




----------------------------------------- Iteration    1(   3)  ---------------------------------------


     EDDAV:  cpu time  299.3535: real time  299.1044
       DOS:  cpu time    0.0000: real time    0.0006
    --------------------------------------------
      LOOP:  cpu time  299.3545: real time  299.1079

 eigenvalue-minimisations  :   494
 total energy-change (2. order) :-0.2971010E+03  (-0.2896592E+03)
 number of electron      58.0000000 magnetization 
 augmentation part       58.0000000 magnetization 

 Free energy of the ion-electron system (eV)
  ---------------------------------------------------
  alpha Z        PSCENC =         0.51957394
  Ewald energy   TEWEN  =      6130.81913532
  -Hartree energ DENC   =     -7872.85277016
  -exchange      EXHF   =         0.00000000
  -V(xc)+E(xc)   XCENC  =       202.16624685
  PAW double counting   =      1779.70502452    -1789.20730229
  entropy T*S    EENTRO =        -0.03121662
  eigenvalues    EBANDS =      -928.98593399
  atomic energy  EATOM  =      2425.98333211
  Solvation  Ediel_sol  =         0.00000000
  ---------------------------------------------------
  free energy    TOTEN  =       -51.88391033 eV

  energy without entropy =      -51.85269371  energy(sigma->0) =      -51.86830202


--------------------------------------------------------------------------------------------------------




----------------------------------------- Iteration    1(   4)  ---------------------------------------


     EDDAV:  cpu time  254.8513: real time  254.6388
       DOS:  cpu time    0.0010: real time    0.0005
    --------------------------------------------
      LOOP:  cpu time  254.8533: real time  254.6424

 eigenvalue-minimisations  :   406
 total energy-change (2. order) :-0.8481787E+02  (-0.8430538E+02)
 number of electron      58.0000000 magnetization 
 augmentation part       58.0000000 magnetization 

 Free energy of the ion-electron system (eV)
  ---------------------------------------------------
  alpha Z        PSCENC =         0.51957394
  Ewald energy   TEWEN  =      6130.81913532
  -Hartree energ DENC   =     -7872.85277016
  -exchange      EXHF   =         0.00000000
  -V(xc)+E(xc)   XCENC  =       202.16624685
  PAW double counting   =      1779.70502452    -1789.20730229
  entropy T*S    EENTRO =         0.00000000
  eigenvalues    EBANDS =     -1013.83501563
  atomic energy  EATOM  =      2425.98333211
  Solvation  Ediel_sol  =         0.00000000
  ---------------------------------------------------
  free energy    TOTEN  =      -136.70177534 eV

  energy without entropy =     -136.70177534  energy(sigma->0) =     -136.70177534


--------------------------------------------------------------------------------------------------------




----------------------------------------- Iteration    1(   5)  ---------------------------------------


     EDDAV:  cpu time  284.3098: real time  284.0727
       DOS:  cpu time    0.0000: real time    0.0005
    CHARGE:  cpu time   16.3965: real time   16.3826
    MIXING:  cpu time    0.5869: real time    0.5861
    --------------------------------------------
      LOOP:  cpu time  301.2932: real time  301.0451

 eigenvalue-minimisations  :   464
 total energy-change (2. order) :-0.4977625E+01  (-0.4966975E+01)
 number of electron      57.9999976 magnetization 
 augmentation part        2.9669724 magnetization 

 Broyden mixing:
  rms(total) = 0.19566E+01    rms(broyden)= 0.19544E+01
  rms(prec ) = 0.20319E+01
  weight for this iteration     100.00

 Free energy of the ion-electron system (eV)
  ---------------------------------------------------
  alpha Z        PSCENC =         0.51957394
  Ewald energy   TEWEN  =      6130.81913532
  -Hartree energ DENC   =     -7872.85277016
  -exchange      EXHF   =         0.00000000
  -V(xc)+E(xc)   XCENC  =       202.16624685
  PAW double counting   =      1779.70502452    -1789.20730229
  entropy T*S    EENTRO =         0.00000000
  eigenvalues    EBANDS =     -1018.81264081
  atomic energy  EATOM  =      2425.98333211
  Solvation  Ediel_sol  =         0.00000000
  ---------------------------------------------------
  free energy    TOTEN  =      -141.67940053 eV

  energy without entropy =     -141.67940053  energy(sigma->0) =     -141.67940053


--------------------------------------------------------------------------------------------------------




----------------------------------------- Iteration    1(   6)  ---------------------------------------


    POTLOK:  cpu time   18.1952: real time   18.1802
    SETDIJ:  cpu time    0.0280: real time    0.0283
     EDDAV:  cpu time  252.7116: real time  252.5010
       DOS:  cpu time    0.0010: real time    0.0005
    CHARGE:  cpu time   16.1985: real time   16.1853
    MIXING:  cpu time    0.6189: real time    0.6185
    --------------------------------------------
      LOOP:  cpu time  287.7543: real time  287.5168

 eigenvalue-minimisations  :   399
 total energy-change (2. order) : 0.1015028E+02  (-0.2372578E+01)
 number of electron      57.9999979 magnetization 
 augmentation part        2.6308988 magnetization 

 Broyden mixing:
  rms(total) = 0.99465E+00    rms(broyden)= 0.99421E+00
  rms(prec ) = 0.10228E+01
  weight for this iteration     100.00

 eigenvalues of (default mixing * dielectric matrix)
  average eigenvalue GAMMA=   1.2847
  1.2847

 Free energy of the ion-electron system (eV)
  ---------------------------------------------------
  alpha Z        PSCENC =         0.51957394
  Ewald energy   TEWEN  =      6130.81913532
  -Hartree energ DENC   =     -7987.34004400
  -exchange      EXHF   =         0.00000000
  -V(xc)+E(xc)   XCENC  =       208.23545394
  PAW double counting   =      2775.12401719    -2785.97653810
  entropy T*S    EENTRO =         0.00000000
  eigenvalues    EBANDS =      -898.89405297
  atomic energy  EATOM  =      2425.98333211
  Solvation  Ediel_sol  =         0.00000000
  ---------------------------------------------------
  free energy    TOTEN  =      -131.52912256 eV

  energy without entropy =     -131.52912256  energy(sigma->0) =     -131.52912256


--------------------------------------------------------------------------------------------------------




----------------------------------------- Iteration    1(   7)  ---------------------------------------


    POTLOK:  cpu time   18.1362: real time   18.1220
    SETDIJ:  cpu time    0.0290: real time    0.0283
     EDDAV:  cpu time  269.6160: real time  269.3920
       DOS:  cpu time    0.0000: real time    0.0005
    CHARGE:  cpu time   16.2715: real time   16.2581
    MIXING:  cpu time    0.6419: real time    0.6411
    --------------------------------------------
      LOOP:  cpu time  304.6967: real time  304.4453

 eigenvalue-minimisations  :   432
 total energy-change (2. order) : 0.1758692E+01  (-0.4462078E+00)
 number of electron      57.9999979 magnetization 
 augmentation part        2.6163066 magnetization 

 Broyden mixing:
  rms(total) = 0.51356E+00    rms(broyden)= 0.51344E+00
  rms(prec ) = 0.52616E+00
  weight for this iteration     100.00

 eigenvalues of (default mixing * dielectric matrix)
  average eigenvalue GAMMA=   1.5814
  1.1149  2.0478

 Free energy of the ion-electron system (eV)
  ---------------------------------------------------
  alpha Z        PSCENC =         0.51957394
  Ewald energy   TEWEN  =      6130.81913532
  -Hartree energ DENC   =     -8049.67881449
  -exchange      EXHF   =         0.00000000
  -V(xc)+E(xc)   XCENC  =       211.29744192
  PAW double counting   =      3748.71263664    -3759.84284506
  entropy T*S    EENTRO =         0.00000000
  eigenvalues    EBANDS =      -837.58089112
  atomic energy  EATOM  =      2425.98333211
  Solvation  Ediel_sol  =         0.00000000
  ---------------------------------------------------
  free energy    TOTEN  =      -129.77043073 eV

  energy without entropy =     -129.77043073  energy(sigma->0) =     -129.77043073


--------------------------------------------------------------------------------------------------------




----------------------------------------- Iteration    1(   8)  ---------------------------------------


    POTLOK:  cpu time   18.1472: real time   18.1334
    SETDIJ:  cpu time    0.0280: real time    0.0282
     EDDAV:  cpu time  269.5130: real time  269.2882
       DOS:  cpu time    0.0010: real time    0.0005
    CHARGE:  cpu time   16.2255: real time   16.2120
    MIXING:  cpu time    0.6789: real time    0.6795
    --------------------------------------------
      LOOP:  cpu time  304.5947: real time  304.3453

 eigenvalue-minimisations  :   432
 total energy-change (2. order) : 0.4899455E+00  (-0.8546242E-01)
 number of electron      57.9999978 magnetization 
 augmentation part        2.5898761 magnetization 

 Broyden mixing:
  rms(total) = 0.14848E+00    rms(broyden)= 0.14841E+00
  rms(prec ) = 0.15632E+00
  weight for this iteration     100.00

 eigenvalues of (default mixing * dielectric matrix)
  average eigenvalue GAMMA=   1.5432
  2.3821  0.9552  1.2923

 Free energy of the ion-electron system (eV)
  ---------------------------------------------------
  alpha Z        PSCENC =         0.51957394
  Ewald energy   TEWEN  =      6130.81913532
  -Hartree energ DENC   =     -8090.40636939
  -exchange      EXHF   =         0.00000000
  -V(xc)+E(xc)   XCENC  =       213.42505979
  PAW double counting   =      4576.70249203    -4588.01251477
  entropy T*S    EENTRO =         0.00000000
  eigenvalues    EBANDS =      -798.31119431
  atomic energy  EATOM  =      2425.98333211
  Solvation  Ediel_sol  =         0.00000000
  ---------------------------------------------------
  free energy    TOTEN  =      -129.28048528 eV

  energy without entropy =     -129.28048528  energy(sigma->0) =     -129.28048528


--------------------------------------------------------------------------------------------------------




----------------------------------------- Iteration    1(   9)  ---------------------------------------


    POTLOK:  cpu time   18.1732: real time   18.1583
    SETDIJ:  cpu time    0.0280: real time    0.0282
     EDDAV:  cpu time  286.2985: real time  286.0605
       DOS:  cpu time    0.0000: real time    0.0005
    CHARGE:  cpu time   16.1895: real time   16.1752
    MIXING:  cpu time    0.7099: real time    0.7090
    --------------------------------------------
      LOOP:  cpu time  321.4011: real time  321.2576

 eigenvalue-minimisations  :   464
 total energy-change (2. order) : 0.6589982E-01  (-0.9794214E-02)
 number of electron      57.9999978 magnetization 
 augmentation part        2.5817679 magnetization 

 Broyden mixing:
  rms(total) = 0.56238E-01    rms(broyden)= 0.56209E-01
  rms(prec ) = 0.64999E-01
  weight for this iteration     100.00

 eigenvalues of (default mixing * dielectric matrix)
  average eigenvalue GAMMA=   1.5246
  2.2012  1.0572  1.0572  1.7828

 Free energy of the ion-electron system (eV)
  ---------------------------------------------------
  alpha Z        PSCENC =         0.51957394
  Ewald energy   TEWEN  =      6130.81913532
  -Hartree energ DENC   =     -8103.61302763
  -exchange      EXHF   =         0.00000000
  -V(xc)+E(xc)   XCENC  =       213.95614689
  PAW double counting   =      4799.17477037    -4810.45761694
  entropy T*S    EENTRO =         0.00000000
  eigenvalues    EBANDS =      -785.59689952
  atomic energy  EATOM  =      2425.98333211
  Solvation  Ediel_sol  =         0.00000000
  ---------------------------------------------------
  free energy    TOTEN  =      -129.21458546 eV

  energy without entropy =     -129.21458545  energy(sigma->0) =     -129.21458545


--------------------------------------------------------------------------------------------------------




----------------------------------------- Iteration    1(  10)  ---------------------------------------


    POTLOK:  cpu time   18.3582: real time   18.3446
    SETDIJ:  cpu time    0.0290: real time    0.0284
     EDDAV:  cpu time  277.9327: real time  277.7009
       DOS:  cpu time    0.0010: real time    0.0005
    CHARGE:  cpu time   16.2615: real time   16.2482
    MIXING:  cpu time    0.7519: real time    0.7515
    --------------------------------------------
      LOOP:  cpu time  313.3354: real time  313.0775

 eigenvalue-minimisations  :   448
 total energy-change (2. order) : 0.1239918E-01  (-0.2413003E-02)
 number of electron      57.9999978 magnetization 
 augmentation part        2.5873642 magnetization 

 Broyden mixing:
  rms(total) = 0.25843E-01    rms(broyden)= 0.25821E-01
  rms(prec ) = 0.35926E-01
  weight for this iteration     100.00

 eigenvalues of (default mixing * dielectric matrix)
  average eigenvalue GAMMA=   1.4876
  2.1642  2.1642  0.9835  0.9835  1.1425

 Free energy of the ion-electron system (eV)
  ---------------------------------------------------
  alpha Z        PSCENC =         0.51957394
  Ewald energy   TEWEN  =      6130.81913532
  -Hartree energ DENC   =     -8108.83621782
  -exchange      EXHF   =         0.00000000
  -V(xc)+E(xc)   XCENC  =       213.97732667
  PAW double counting   =      4794.00499660    -4805.23857057
  entropy T*S    EENTRO =         0.00000000
  eigenvalues    EBANDS =      -780.43176254
  atomic energy  EATOM  =      2425.98333211
  Solvation  Ediel_sol  =         0.00000000
  ---------------------------------------------------
  free energy    TOTEN  =      -129.20218628 eV

  energy without entropy =     -129.20218628  energy(sigma->0) =     -129.20218628


--------------------------------------------------------------------------------------------------------




----------------------------------------- Iteration    1(  11)  ---------------------------------------


    POTLOK:  cpu time   18.2082: real time   18.1941
    SETDIJ:  cpu time    0.0290: real time    0.0282
     EDDAV:  cpu time  285.9925: real time  285.7544
       DOS:  cpu time    0.0000: real time    0.0005
    CHARGE:  cpu time   16.2335: real time   16.2196
    MIXING:  cpu time    0.7909: real time    0.7916
    --------------------------------------------
      LOOP:  cpu time  321.2562: real time  320.9920

 eigenvalue-minimisations  :   464
 total energy-change (2. order) : 0.5503874E-02  (-0.7643334E-03)
 number of electron      57.9999978 magnetization 
 augmentation part        2.5834806 magnetization 

 Broyden mixing:
  rms(total) = 0.16235E-01    rms(broyden)= 0.16228E-01
  rms(prec ) = 0.25143E-01
  weight for this iteration     100.00

 eigenvalues of (default mixing * dielectric matrix)
  average eigenvalue GAMMA=   1.5447
  2.4720  2.4720  1.2123  1.2123  0.9498  0.9498

 Free energy of the ion-electron system (eV)
  ---------------------------------------------------
  alpha Z        PSCENC =         0.51957394
  Ewald energy   TEWEN  =      6130.81913532
  -Hartree energ DENC   =     -8114.53024449
  -exchange      EXHF   =         0.00000000
  -V(xc)+E(xc)   XCENC  =       214.07738434
  PAW double counting   =      4795.89730290    -4807.12961700
  entropy T*S    EENTRO =         0.00000000
  eigenvalues    EBANDS =      -774.83354953
  atomic energy  EATOM  =      2425.98333211
  Solvation  Ediel_sol  =         0.00000000
  ---------------------------------------------------
  free energy    TOTEN  =      -129.19668240 eV

  energy without entropy =     -129.19668240  energy(sigma->0) =     -129.19668240


--------------------------------------------------------------------------------------------------------




----------------------------------------- Iteration    1(  12)  ---------------------------------------


    POTLOK:  cpu time   18.2132: real time   18.1984
    SETDIJ:  cpu time    0.0280: real time    0.0283
     EDDAV:  cpu time  237.1290: real time  236.9319
       DOS:  cpu time    0.0000: real time    0.0005
    CHARGE:  cpu time   16.3055: real time   16.2922
    MIXING:  cpu time    0.8429: real time    0.8414
    --------------------------------------------
      LOOP:  cpu time  272.5216: real time  272.2963

 eigenvalue-minimisations  :   368
 total energy-change (2. order) :-0.4907350E-04  (-0.5552972E-03)
 number of electron      57.9999978 magnetization 
 augmentation part        2.5831869 magnetization 

 Broyden mixing:
  rms(total) = 0.98991E-02    rms(broyden)= 0.98947E-02
  rms(prec ) = 0.16222E-01
  weight for this iteration     100.00

 eigenvalues of (default mixing * dielectric matrix)
  average eigenvalue GAMMA=   1.5908
  2.7162  2.7162  1.3470  1.2124  1.2124  0.9658  0.9658

 Free energy of the ion-electron system (eV)
  ---------------------------------------------------
  alpha Z        PSCENC =         0.51957394
  Ewald energy   TEWEN  =      6130.81913532
  -Hartree energ DENC   =     -8121.11028897
  -exchange      EXHF   =         0.00000000
  -V(xc)+E(xc)   XCENC  =       214.16167023
  PAW double counting   =      4791.80602420    -4803.02858761
  entropy T*S    EENTRO =         0.00000000
  eigenvalues    EBANDS =      -768.34759070
  atomic energy  EATOM  =      2425.98333211
  Solvation  Ediel_sol  =         0.00000000
  ---------------------------------------------------
  free energy    TOTEN  =      -129.19673148 eV

  energy without entropy =     -129.19673148  energy(sigma->0) =     -129.19673148


--------------------------------------------------------------------------------------------------------




----------------------------------------- Iteration    1(  13)  ---------------------------------------


    POTLOK:  cpu time   18.2642: real time   18.2485
    SETDIJ:  cpu time    0.0280: real time    0.0283
     EDDAV:  cpu time  277.6748: real time  277.4443
       DOS:  cpu time    0.0000: real time    0.0005
    CHARGE:  cpu time   16.2365: real time   16.2225
    MIXING:  cpu time    0.8849: real time    0.8845
    --------------------------------------------
      LOOP:  cpu time  313.0894: real time  312.8318

 eigenvalue-minimisations  :   447
 total energy-change (2. order) :-0.6175429E-02  (-0.4653512E-03)
 number of electron      57.9999978 magnetization 
 augmentation part        2.5815501 magnetization 

 Broyden mixing:
  rms(total) = 0.59836E-02    rms(broyden)= 0.59773E-02
  rms(prec ) = 0.97842E-02
  weight for this iteration     100.00

 eigenvalues of (default mixing * dielectric matrix)
  average eigenvalue GAMMA=   1.7000
  4.0885  2.4878  1.5504  1.5080  1.0005  1.0005  0.9765  0.9881

 Free energy of the ion-electron system (eV)
  ---------------------------------------------------
  alpha Z        PSCENC =         0.51957394
  Ewald energy   TEWEN  =      6130.81913532
  -Hartree energ DENC   =     -8126.71124851
  -exchange      EXHF   =         0.00000000
  -V(xc)+E(xc)   XCENC  =       214.22747836
  PAW double counting   =      4785.79679802    -4797.01964485
  entropy T*S    EENTRO =         0.00000000
  eigenvalues    EBANDS =      -762.81833131
  atomic energy  EATOM  =      2425.98333211
  Solvation  Ediel_sol  =         0.00000000
  ---------------------------------------------------
  free energy    TOTEN  =      -129.20290691 eV

  energy without entropy =     -129.20290691  energy(sigma->0) =     -129.20290691


--------------------------------------------------------------------------------------------------------




----------------------------------------- Iteration    1(  14)  ---------------------------------------


    POTLOK:  cpu time   18.3182: real time   18.3024
    SETDIJ:  cpu time    0.0280: real time    0.0283
     EDDAV:  cpu time  269.8790: real time  269.6538
       DOS:  cpu time    0.0010: real time    0.0005
    CHARGE:  cpu time   16.2915: real time   16.2783
    MIXING:  cpu time    0.9449: real time    0.9440
    --------------------------------------------
      LOOP:  cpu time  305.4636: real time  305.2108

 eigenvalue-minimisations  :   432
 total energy-change (2. order) :-0.6680610E-02  (-0.1960454E-03)
 number of electron      57.9999978 magnetization 
 augmentation part        2.5809942 magnetization 

 Broyden mixing:
  rms(total) = 0.39676E-02    rms(broyden)= 0.39635E-02
  rms(prec ) = 0.60411E-02
  weight for this iteration     100.00

 eigenvalues of (default mixing * dielectric matrix)
  average eigenvalue GAMMA=   1.8193
  5.0314  2.4052  2.2263  1.3081  1.3081  1.0710  1.0710  0.9763  0.9763

 Free energy of the ion-electron system (eV)
  ---------------------------------------------------
  alpha Z        PSCENC =         0.51957394
  Ewald energy   TEWEN  =      6130.81913532
  -Hartree energ DENC   =     -8130.28354480
  -exchange      EXHF   =         0.00000000
  -V(xc)+E(xc)   XCENC  =       214.25201924
  PAW double counting   =      4780.54273171    -4791.76247262
  entropy T*S    EENTRO =         0.00000000
  eigenvalues    EBANDS =      -759.28036242
  atomic energy  EATOM  =      2425.98333211
  Solvation  Ediel_sol  =         0.00000000
  ---------------------------------------------------
  free energy    TOTEN  =      -129.20958752 eV

  energy without entropy =     -129.20958752  energy(sigma->0) =     -129.20958752


--------------------------------------------------------------------------------------------------------




----------------------------------------- Iteration    1(  15)  ---------------------------------------


    POTLOK:  cpu time   18.3792: real time   18.3647
    SETDIJ:  cpu time    0.0280: real time    0.0282
     EDDAV:  cpu time  268.0423: real time  267.8183
       DOS:  cpu time    0.0010: real time    0.0005
    CHARGE:  cpu time   16.2265: real time   16.2128
    MIXING:  cpu time    1.0248: real time    1.0243
    --------------------------------------------
      LOOP:  cpu time  303.7028: real time  303.4789

 eigenvalue-minimisations  :   428
 total energy-change (2. order) :-0.8040142E-02  (-0.8636502E-04)
 number of electron      57.9999978 magnetization 
 augmentation part        2.5808439 magnetization 

 Broyden mixing:
  rms(total) = 0.23953E-02    rms(broyden)= 0.23938E-02
  rms(prec ) = 0.35693E-02
  weight for this iteration     100.00

 eigenvalues of (default mixing * dielectric matrix)
  average eigenvalue GAMMA=   1.8975
  5.6337  2.7642  2.3313  1.7234  1.3663  1.0329  1.0329  1.0856  1.0023  1.0023

 Free energy of the ion-electron system (eV)
  ---------------------------------------------------
  alpha Z        PSCENC =         0.51957394
  Ewald energy   TEWEN  =      6130.81913532
  -Hartree energ DENC   =     -8132.05028469
  -exchange      EXHF   =         0.00000000
  -V(xc)+E(xc)   XCENC  =       214.25149899
  PAW double counting   =      4779.69614615    -4790.91458523
  entropy T*S    EENTRO =         0.00000000
  eigenvalues    EBANDS =      -757.52244425
  atomic energy  EATOM  =      2425.98333211
  Solvation  Ediel_sol  =         0.00000000
  ---------------------------------------------------
  free energy    TOTEN  =      -129.21762766 eV

  energy without entropy =     -129.21762766  energy(sigma->0) =     -129.21762766


--------------------------------------------------------------------------------------------------------




----------------------------------------- Iteration    1(  16)  ---------------------------------------


    POTLOK:  cpu time   18.3732: real time   18.3588
    SETDIJ:  cpu time    0.0280: real time    0.0282
     EDDAV:  cpu time  219.8786: real time  219.6947
       DOS:  cpu time    0.0010: real time    0.0005
    CHARGE:  cpu time   16.1975: real time   16.1843
    MIXING:  cpu time    1.0198: real time    1.0187
    --------------------------------------------
      LOOP:  cpu time  255.4992: real time  255.2885

 eigenvalue-minimisations  :   334
 total energy-change (2. order) :-0.5886250E-02  (-0.4429532E-04)
 number of electron      57.9999978 magnetization 
 augmentation part        2.5809084 magnetization 

 Broyden mixing:
  rms(total) = 0.13628E-02    rms(broyden)= 0.13623E-02
  rms(prec ) = 0.20590E-02
  weight for this iteration     100.00

 eigenvalues of (default mixing * dielectric matrix)
  average eigenvalue GAMMA=   1.9600
  6.3539  3.1868  2.3548  1.9192  1.3280  1.3280  1.1027  1.0100  1.0100  0.9833
  0.9833

 Free energy of the ion-electron system (eV)
  ---------------------------------------------------
  alpha Z        PSCENC =         0.51957394
  Ewald energy   TEWEN  =      6130.81913532
  -Hartree energ DENC   =     -8132.68294812
  -exchange      EXHF   =         0.00000000
  -V(xc)+E(xc)   XCENC  =       214.24142396
  PAW double counting   =      4779.57393972    -4790.79147262
  entropy T*S    EENTRO =         0.00000000
  eigenvalues    EBANDS =      -756.88649823
  atomic energy  EATOM  =      2425.98333211
  Solvation  Ediel_sol  =         0.00000000
  ---------------------------------------------------
  free energy    TOTEN  =      -129.22351391 eV

  energy without entropy =     -129.22351391  energy(sigma->0) =     -129.22351391


--------------------------------------------------------------------------------------------------------




----------------------------------------- Iteration    1(  17)  ---------------------------------------


    POTLOK:  cpu time   18.3832: real time   18.3674
    SETDIJ:  cpu time    0.0280: real time    0.0282
     EDDAV:  cpu time  222.2492: real time  222.0643
       DOS:  cpu time    0.0000: real time    0.0005
    CHARGE:  cpu time   16.2345: real time   16.2214
    MIXING:  cpu time    1.1198: real time    1.1182
    --------------------------------------------
      LOOP:  cpu time  258.0148: real time  257.8032

 eigenvalue-minimisations  :   336
 total energy-change (2. order) :-0.2910573E-02  (-0.1511649E-04)
 number of electron      57.9999978 magnetization 
 augmentation part        2.5808347 magnetization 

 Broyden mixing:
  rms(total) = 0.87685E-03    rms(broyden)= 0.87645E-03
  rms(prec ) = 0.12907E-02
  weight for this iteration     100.00

 eigenvalues of (default mixing * dielectric matrix)
  average eigenvalue GAMMA=   2.0227
  7.0762  3.5986  2.2883  2.2883  1.4883  1.4883  1.0568  1.0568  1.0260  1.0260
  0.9394  0.9394

 Free energy of the ion-electron system (eV)
  ---------------------------------------------------
  alpha Z        PSCENC =         0.51957394
  Ewald energy   TEWEN  =      6130.81913532
  -Hartree energ DENC   =     -8133.03907038
  -exchange      EXHF   =         0.00000000
  -V(xc)+E(xc)   XCENC  =       214.23764607
  PAW double counting   =      4779.89005832    -4791.10756283
  entropy T*S    EENTRO =         0.00000000
  eigenvalues    EBANDS =      -756.52953704
  atomic energy  EATOM  =      2425.98333211
  Solvation  Ediel_sol  =         0.00000000
  ---------------------------------------------------
  free energy    TOTEN  =      -129.22642448 eV

  energy without entropy =     -129.22642448  energy(sigma->0) =     -129.22642448


--------------------------------------------------------------------------------------------------------




----------------------------------------- Iteration    1(  18)  ---------------------------------------


    POTLOK:  cpu time   18.3012: real time   18.2865
    SETDIJ:  cpu time    0.0280: real time    0.0282
     EDDAV:  cpu time  212.9956: real time  212.8182
       DOS:  cpu time    0.0000: real time    0.0005
    CHARGE:  cpu time   16.2015: real time   16.1879
    MIXING:  cpu time    1.1558: real time    1.1555
    --------------------------------------------
      LOOP:  cpu time  248.6842: real time  248.5116

 eigenvalue-minimisations  :   318
 total energy-change (2. order) :-0.1709648E-02  (-0.1127660E-04)
 number of electron      57.9999978 magnetization 
 augmentation part        2.5807877 magnetization 

 Broyden mixing:
  rms(total) = 0.54090E-03    rms(broyden)= 0.54069E-03
  rms(prec ) = 0.78585E-03
  weight for this iteration     100.00

 eigenvalues of (default mixing * dielectric matrix)
  average eigenvalue GAMMA=   2.0878
  7.5885  4.1954  2.4010  2.4010  1.7146  1.3999  1.3999  1.0545  1.0545  0.9750
  0.9750  0.9909  0.9909

 Free energy of the ion-electron system (eV)
  ---------------------------------------------------
  alpha Z        PSCENC =         0.51957394
  Ewald energy   TEWEN  =      6130.81913532
  -Hartree energ DENC   =     -8133.20225244
  -exchange      EXHF   =         0.00000000
  -V(xc)+E(xc)   XCENC  =       214.23482300
  PAW double counting   =      4780.07011386    -4791.28755688
  entropy T*S    EENTRO =         0.00000000
  eigenvalues    EBANDS =      -756.36530305
  atomic energy  EATOM  =      2425.98333211
  Solvation  Ediel_sol  =         0.00000000
  ---------------------------------------------------
  free energy    TOTEN  =      -129.22813413 eV

  energy without entropy =     -129.22813413  energy(sigma->0) =     -129.22813413


--------------------------------------------------------------------------------------------------------




----------------------------------------- Iteration    1(  19)  ---------------------------------------


    POTLOK:  cpu time   18.2732: real time   18.2584
    SETDIJ:  cpu time    0.0280: real time    0.0282
     EDDAV:  cpu time  200.8595: real time  200.6922
       DOS:  cpu time    0.0000: real time    0.0005
    CHARGE:  cpu time   16.2615: real time   16.2480
    MIXING:  cpu time    1.2078: real time    1.2066
    --------------------------------------------
      LOOP:  cpu time  236.6330: real time  236.4374

 eigenvalue-minimisations  :   294
 total energy-change (2. order) :-0.1021147E-02  (-0.5625285E-05)
 number of electron      57.9999978 magnetization 
 augmentation part        2.5807715 magnetization 

 Broyden mixing:
  rms(total) = 0.31844E-03    rms(broyden)= 0.31819E-03
  rms(prec ) = 0.45178E-03
  weight for this iteration     100.00

 eigenvalues of (default mixing * dielectric matrix)
  average eigenvalue GAMMA=   2.1305
  8.0741  4.7161  2.6129  2.6129  1.6878  1.5236  1.5236  1.0796  1.0796  0.9570
  0.9847  0.9847  0.9952  0.9952

 Free energy of the ion-electron system (eV)
  ---------------------------------------------------
  alpha Z        PSCENC =         0.51957394
  Ewald energy   TEWEN  =      6130.81913532
  -Hartree energ DENC   =     -8133.28063359
  -exchange      EXHF   =         0.00000000
  -V(xc)+E(xc)   XCENC  =       214.23376882
  PAW double counting   =      4780.27250027    -4791.49006118
  entropy T*S    EENTRO =         0.00000000
  eigenvalues    EBANDS =      -756.28677098
  atomic energy  EATOM  =      2425.98333211
  Solvation  Ediel_sol  =         0.00000000
  ---------------------------------------------------
  free energy    TOTEN  =      -129.22915528 eV

  energy without entropy =     -129.22915528  energy(sigma->0) =     -129.22915528


--------------------------------------------------------------------------------------------------------




----------------------------------------- Iteration    1(  20)  ---------------------------------------


    POTLOK:  cpu time   18.1992: real time   18.1849
    SETDIJ:  cpu time    0.0280: real time    0.0282
     EDDAV:  cpu time  226.3756: real time  226.1868
       DOS:  cpu time    0.0000: real time    0.0005
    CHARGE:  cpu time   16.2075: real time   16.1936
    MIXING:  cpu time    1.3198: real time    1.3181
    --------------------------------------------
      LOOP:  cpu time  262.1311: real time  261.9153

 eigenvalue-minimisations  :   344
 total energy-change (2. order) :-0.4067375E-03  (-0.1966868E-05)
 number of electron      57.9999978 magnetization 
 augmentation part        2.5807603 magnetization 

 Broyden mixing:
  rms(total) = 0.19276E-03    rms(broyden)= 0.19269E-03
  rms(prec ) = 0.27626E-03
  weight for this iteration     100.00

 eigenvalues of (default mixing * dielectric matrix)
  average eigenvalue GAMMA=   2.1545
  8.3384  5.2184  2.7633  2.5559  1.9777  1.6832  1.3067  1.3067  1.0050  0.9819
  0.9819  1.0856  1.0856  1.0137  1.0137

 Free energy of the ion-electron system (eV)
  ---------------------------------------------------
  alpha Z        PSCENC =         0.51957394
  Ewald energy   TEWEN  =      6130.81913532
  -Hartree energ DENC   =     -8133.30779962
  -exchange      EXHF   =         0.00000000
  -V(xc)+E(xc)   XCENC  =       214.23290197
  PAW double counting   =      4780.01453101    -4791.23207666
  entropy T*S    EENTRO =         0.00000000
  eigenvalues    EBANDS =      -756.25916008
  atomic energy  EATOM  =      2425.98333211
  Solvation  Ediel_sol  =         0.00000000
  ---------------------------------------------------
  free energy    TOTEN  =      -129.22956201 eV

  energy without entropy =     -129.22956201  energy(sigma->0) =     -129.22956201


--------------------------------------------------------------------------------------------------------




----------------------------------------- Iteration    1(  21)  ---------------------------------------


    POTLOK:  cpu time   18.2432: real time   18.2294
    SETDIJ:  cpu time    0.0280: real time    0.0282
     EDDAV:  cpu time  202.6392: real time  202.4695
       DOS:  cpu time    0.0000: real time    0.0005
    CHARGE:  cpu time   16.1995: real time   16.1852
    MIXING:  cpu time    1.3508: real time    1.3498
    --------------------------------------------
      LOOP:  cpu time  238.4617: real time  238.2656

 eigenvalue-minimisations  :   296
 total energy-change (2. order) :-0.2296825E-03  (-0.8943873E-06)
 number of electron      57.9999978 magnetization 
 augmentation part        2.5807522 magnetization 

 Broyden mixing:
  rms(total) = 0.11446E-03    rms(broyden)= 0.11439E-03
  rms(prec ) = 0.16517E-03
  weight for this iteration     100.00

 eigenvalues of (default mixing * dielectric matrix)
  average eigenvalue GAMMA=   2.2309
  8.5174  5.8340  3.4854  2.6468  2.3373  1.5989  1.5989  1.4969  1.1100  1.1100
  1.0189  1.0189  0.9845  0.9845  0.9763  0.9763

 Free energy of the ion-electron system (eV)
  ---------------------------------------------------
  alpha Z        PSCENC =         0.51957394
  Ewald energy   TEWEN  =      6130.81913532
  -Hartree energ DENC   =     -8133.31050025
  -exchange      EXHF   =         0.00000000
  -V(xc)+E(xc)   XCENC  =       214.23238987
  PAW double counting   =      4780.06403979    -4791.28159109
  entropy T*S    EENTRO =         0.00000000
  eigenvalues    EBANDS =      -756.25617139
  atomic energy  EATOM  =      2425.98333211
  Solvation  Ediel_sol  =         0.00000000
  ---------------------------------------------------
  free energy    TOTEN  =      -129.22979170 eV

  energy without entropy =     -129.22979170  energy(sigma->0) =     -129.22979170


--------------------------------------------------------------------------------------------------------




----------------------------------------- Iteration    1(  22)  ---------------------------------------


    POTLOK:  cpu time   18.2932: real time   18.2783
    SETDIJ:  cpu time    0.0280: real time    0.0282
     EDDAV:  cpu time  206.6296: real time  206.4584
       DOS:  cpu time    0.0000: real time    0.0005
    CHARGE:  cpu time   16.2135: real time   16.1998
    MIXING:  cpu time    1.4508: real time    1.4500
    --------------------------------------------
      LOOP:  cpu time  242.6171: real time  242.4187

 eigenvalue-minimisations  :   304
 total energy-change (2. order) :-0.1466046E-03  (-0.4164858E-06)
 number of electron      57.9999978 magnetization 
 augmentation part        2.5807589 magnetization 

 Broyden mixing:
  rms(total) = 0.73889E-04    rms(broyden)= 0.73841E-04
  rms(prec ) = 0.95115E-04
  weight for this iteration     100.00

 eigenvalues of (default mixing * dielectric matrix)
  average eigenvalue GAMMA=   2.2162
  8.5804  6.1668  3.6372  2.4806  2.4806  1.7454  1.7454  1.3251  1.3251  1.1032
  1.1032  1.0368  1.0368  1.0231  0.9385  0.9732  0.9732

 Free energy of the ion-electron system (eV)
  ---------------------------------------------------
  alpha Z        PSCENC =         0.51957394
  Ewald energy   TEWEN  =      6130.81913532
  -Hartree energ DENC   =     -8133.32886589
  -exchange      EXHF   =         0.00000000
  -V(xc)+E(xc)   XCENC  =       214.23219176
  PAW double counting   =      4779.97117395    -4791.18871167
  entropy T*S    EENTRO =         0.00000000
  eigenvalues    EBANDS =      -756.23776782
  atomic energy  EATOM  =      2425.98333211
  Solvation  Ediel_sol  =         0.00000000
  ---------------------------------------------------
  free energy    TOTEN  =      -129.22993830 eV

  energy without entropy =     -129.22993830  energy(sigma->0) =     -129.22993830


--------------------------------------------------------------------------------------------------------




----------------------------------------- Iteration    1(  23)  ---------------------------------------


    POTLOK:  cpu time   18.2552: real time   18.2402
    SETDIJ:  cpu time    0.0280: real time    0.0282
     EDDAV:  cpu time  239.1676: real time  238.9692
       DOS:  cpu time    0.0000: real time    0.0005
    --------------------------------------------
      LOOP:  cpu time  257.4539: real time  257.2419

 eigenvalue-minimisations  :   368
 total energy-change (2. order) :-0.3595490E-04  (-0.9385555E-07)
 number of electron      57.9999978 magnetization 
 augmentation part        2.5807589 magnetization 

 Free energy of the ion-electron system (eV)
  ---------------------------------------------------
  alpha Z        PSCENC =         0.51957394
  Ewald energy   TEWEN  =      6130.81913532
  -Hartree energ DENC   =     -8133.33541436
  -exchange      EXHF   =         0.00000000
  -V(xc)+E(xc)   XCENC  =       214.23220456
  PAW double counting   =      4780.01099727    -4791.22854106
  entropy T*S    EENTRO =         0.00000000
  eigenvalues    EBANDS =      -756.23126204
  atomic energy  EATOM  =      2425.98333211
  Solvation  Ediel_sol  =         0.00000000
  ---------------------------------------------------
  free energy    TOTEN  =      -129.22997426 eV

  energy without entropy =     -129.22997426  energy(sigma->0) =     -129.22997426


--------------------------------------------------------------------------------------------------------




 average (electrostatic) potential at core
  the test charge radii are     0.5201  0.6991  0.7089  0.7215
  (the norm of the test charge is              1.0000)
       1 -42.4136       2 -42.6761       3 -42.6494       4 -44.8474       5 -42.3778
       6 -41.9412       7 -41.9836       8 -42.0459       9 -43.0076      10 -41.5844
      11 -41.6941      12 -41.7810      13 -59.1425      14 -61.6115      15 -60.0846
      16 -58.7077      17 -60.7569      18 -58.9395      19 -74.8420      20 -73.7058
      21 -80.1549      22 -79.2227
 
 
 
 E-fermi :  -4.4378     XC(G=0):  -0.1523     alpha+bet : -0.0465


 k-point     1 :       0.2500    0.2500    0.2500
  band No.  band energies     occupation 
      1     -26.3552      2.00000
      2     -25.4899      2.00000
      3     -23.5634      2.00000
      4     -22.5490      2.00000
      5     -19.6988      2.00000
      6     -18.3549      2.00000
      7     -17.2367      2.00000
      8     -16.1619      2.00000
      9     -14.8088      2.00000
     10     -13.8345      2.00000
     11     -13.2054      2.00000
     12     -12.5190      2.00000
     13     -11.5940      2.00000
     14     -11.4709      2.00000
     15     -10.9878      2.00000
     16     -10.7072      2.00000
     17     -10.4266      2.00000
     18     -10.1423      2.00000
     19     -10.1060      2.00000
     20      -9.9954      2.00000
     21      -9.3515      2.00000
     22      -9.1851      2.00000
     23      -8.8753      2.00000
     24      -8.7790      2.00000
     25      -8.3845      2.00000
     26      -6.7953      2.00000
     27      -6.3767      2.00000
     28      -5.7223      2.00000
     29      -5.4383      2.00000
     30      -1.2261      0.00000
     31      -1.0323      0.00000
     32      -0.5443      0.00000
     33      -0.2704      0.00000
     34      -0.1785      0.00000
     35      -0.0505      0.00000
     36       0.0239      0.00000
     37       0.0862      0.00000
     38       0.1075      0.00000
     39       0.1108      0.00000
     40       0.1612      0.00000
     41       0.1771      0.00000

 k-point     2 :      -0.2500    0.2500    0.2500
  band No.  band energies     occupation 
      1     -26.3552      2.00000
      2     -25.4899      2.00000
      3     -23.5634      2.00000
      4     -22.5490      2.00000
      5     -19.6988      2.00000
      6     -18.3549      2.00000
      7     -17.2367      2.00000
      8     -16.1619      2.00000
      9     -14.8088      2.00000
     10     -13.8345      2.00000
     11     -13.2054      2.00000
     12     -12.5190      2.00000
     13     -11.5940      2.00000
     14     -11.4710      2.00000
     15     -10.9878      2.00000
     16     -10.7072      2.00000
     17     -10.4267      2.00000
     18     -10.1423      2.00000
     19     -10.1060      2.00000
     20      -9.9954      2.00000
     21      -9.3515      2.00000
     22      -9.1851      2.00000
     23      -8.8753      2.00000
     24      -8.7790      2.00000
     25      -8.3845      2.00000
     26      -6.7953      2.00000
     27      -6.3767      2.00000
     28      -5.7224      2.00000
     29      -5.4383      2.00000
     30      -1.2261      0.00000
     31      -1.0323      0.00000
     32      -0.5443      0.00000
     33      -0.2705      0.00000
     34      -0.1784      0.00000
     35      -0.0500      0.00000
     36       0.0222      0.00000
     37       0.0813      0.00000
     38       0.1112      0.00000
     39       0.1181      0.00000
     40       0.1616      0.00000
     41       0.1726      0.00000

 k-point     3 :       0.2500   -0.2500    0.2500
  band No.  band energies     occupation 
      1     -26.3552      2.00000
      2     -25.4899      2.00000
      3     -23.5634      2.00000
      4     -22.5490      2.00000
      5     -19.6988      2.00000
      6     -18.3549      2.00000
      7     -17.2367      2.00000
      8     -16.1619      2.00000
      9     -14.8088      2.00000
[...]
 augmentation part        2.5810016 magnetization 

 Free energy of the ion-electron system (eV)
  ---------------------------------------------------
  alpha Z        PSCENC =         0.51957394
  Ewald energy   TEWEN  =      6101.12497695
  -Hartree energ DENC   =     -8104.60989833
  -exchange      EXHF   =         0.00000000
  -V(xc)+E(xc)   XCENC  =       214.10440225
  PAW double counting   =      4772.38411083    -4783.60162357
  entropy T*S    EENTRO =         0.00000000
  eigenvalues    EBANDS =      -755.28394609
  atomic energy  EATOM  =      2425.98333211
  Solvation  Ediel_sol  =         0.00000000
  ---------------------------------------------------
  free energy    TOTEN  =      -129.37907192 eV

  energy without entropy =     -129.37907192  energy(sigma->0) =     -129.37907192


--------------------------------------------------------------------------------------------------------




 average (electrostatic) potential at core
  the test charge radii are     0.5201  0.6991  0.7089  0.7215
  (the norm of the test charge is              1.0000)
       1 -42.3536       2 -42.5805       3 -42.5962       4 -44.8088       5 -42.3839
       6 -41.9127       7 -41.8803       8 -41.9850       9 -43.2394      10 -41.6815
      11 -41.7877      12 -41.8460      13 -59.1212      14 -61.5428      15 -60.0289
      16 -58.6539      17 -60.7744      18 -59.0470      19 -74.8069      20 -73.8591
      21 -80.0391      22 -79.2182
 
 
 
 E-fermi :  -4.4995     XC(G=0):  -0.1335     alpha+bet : -0.0465


 k-point     1 :       0.2500    0.2500    0.2500
  band No.  band energies     occupation 
      1     -26.2472      2.00000
      2     -25.4843      2.00000
      3     -23.4788      2.00000
      4     -22.6252      2.00000
      5     -19.6161      2.00000
      6     -18.2976      2.00000
      7     -17.3196      2.00000
      8     -16.1494      2.00000
      9     -14.7730      2.00000
     10     -13.8937      2.00000
     11     -13.2575      2.00000
     12     -12.5162      2.00000
     13     -11.5299      2.00000
     14     -11.4107      2.00000
     15     -10.9324      2.00000
     16     -10.7329      2.00000
     17     -10.4046      2.00000
     18     -10.1239      2.00000
     19     -10.0352      2.00000
     20      -9.9481      2.00000
     21      -9.3493      2.00000
     22      -9.1127      2.00000
     23      -8.9347      2.00000
     24      -8.7418      2.00000
     25      -8.4489      2.00000
     26      -6.7922      2.00000
     27      -6.2873      2.00000
     28      -5.7677      2.00000
     29      -5.4311      2.00000
     30      -1.1538      0.00000
     31      -1.0226      0.00000
     32      -0.4643      0.00000
     33      -0.2830      0.00000
     34      -0.1985      0.00000
     35      -0.0454      0.00000
     36       0.0469      0.00000
     37       0.1080      0.00000
     38       0.1282      0.00000
     39       0.1345      0.00000
     40       0.1812      0.00000
     41       0.1976      0.00000

 k-point     2 :      -0.2500    0.2500    0.2500
  band No.  band energies     occupation 
      1     -26.2472      2.00000
      2     -25.4843      2.00000
      3     -23.4788      2.00000
      4     -22.6252      2.00000
      5     -19.6161      2.00000
      6     -18.2976      2.00000
      7     -17.3196      2.00000
      8     -16.1494      2.00000
      9     -14.7730      2.00000
     10     -13.8937      2.00000
     11     -13.2575      2.00000
     12     -12.5162      2.00000
     13     -11.5299      2.00000
     14     -11.4107      2.00000
     15     -10.9324      2.00000
     16     -10.7329      2.00000
     17     -10.4046      2.00000
     18     -10.1239      2.00000
     19     -10.0352      2.00000
     20      -9.9481      2.00000
     21      -9.3494      2.00000
     22      -9.1127      2.00000
     23      -8.9347      2.00000
     24      -8.7418      2.00000
     25      -8.4489      2.00000
     26      -6.7922      2.00000
     27      -6.2873      2.00000
     28      -5.7677      2.00000
     29      -5.4310      2.00000
     30      -1.1538      0.00000
     31      -1.0226      0.00000
     32      -0.4643      0.00000
     33      -0.2830      0.00000
     34      -0.1984      0.00000
     35      -0.0453      0.00000
     36       0.0460      0.00000
     37       0.1046      0.00000
     38       0.1304      0.00000
     39       0.1416      0.00000
     40       0.1823      0.00000
     41       0.1932      0.00000

 k-point     3 :       0.2500   -0.2500    0.2500
  band No.  band energies     occupation 
      1     -26.2472      2.00000
      2     -25.4843      2.00000
      3     -23.4788      2.00000
      4     -22.6252      2.00000
      5     -19.6161      2.00000
      6     -18.2976      2.00000
      7     -17.3196      2.00000
      8     -16.1494      2.00000
      9     -14.7730      2.00000
     10     -13.8937      2.00000
     11     -13.2575      2.00000
     12     -12.5162      2.00000
     13     -11.5299      2.00000
     14     -11.4107      2.00000
     15     -10.9324      2.00000
     16     -10.7329      2.00000
     17     -10.4046      2.00000
     18     -10.1239      2.00000
     19     -10.0352      2.00000
     20      -9.9481      2.00000
     21      -9.3494      2.00000
     22      -9.1127      2.00000
     23      -8.9347      2.00000
     24      -8.7418      2.00000
     25      -8.4489      2.00000
     26      -6.7922      2.00000
     27      -6.2873      2.00000
     28      -5.7677      2.00000
     29      -5.4311      2.00000
     30      -1.1538      0.00000
     31      -1.0226      0.00000
     32      -0.4643      0.00000
     33      -0.2830      0.00000
     34      -0.1984      0.00000
     35      -0.0445      0.00000
     36       0.0408      0.00000
     37       0.1130      0.00000
     38       0.1256      0.00000
     39       0.1440      0.00000
     40       0.1858      0.00000
     41       0.1941      0.00000

 k-point     4 :      -0.2500   -0.2500    0.2500
  band No.  band energies     occupation 
      1     -26.2472      2.00000
      2     -25.4843      2.00000
      3     -23.4788      2.00000
      4     -22.6252      2.00000
      5     -19.6161      2.00000
      6     -18.2976      2.00000
      7     -17.3196      2.00000
      8     -16.1494      2.00000
      9     -14.7730      2.00000
     10     -13.8937      2.00000
     11     -13.2575      2.00000
     12     -12.5162      2.00000
     13     -11.5299      2.00000
     14     -11.4107      2.00000
     15     -10.9324      2.00000
     16     -10.7329      2.00000
     17     -10.4046      2.00000
     18     -10.1239      2.00000
     19     -10.0352      2.00000
     20      -9.9481      2.00000
     21      -9.3494      2.00000
     22      -9.1127      2.00000
     23      -8.9347      2.00000
     24      -8.7418      2.00000
     25      -8.4489      2.00000
     26      -6.7922      2.00000
     27      -6.2873      2.00000
     28      -5.7677      2.00000
     29      -5.4311      2.00000
     30      -1.1538      0.00000
     31      -1.0226      0.00000
     32      -0.4643      0.00000
     33      -0.2830      0.00000
     34      -0.1985      0.00000
     35      -0.0446      0.00000
     36       0.0414      0.00000
     37       0.1176      0.00000
     38       0.1280      0.00000
     39       0.1357      0.00000
     40       0.1785      0.00000
     41       0.1910      0.00000


--------------------------------------------------------------------------------------------------------


 soft charge-density along one line, spin component           1
         0         1         2         3         4         5         6         7         8         9
 total charge-density along one line
 
 pseudopotential strength for first ion, spin component:           1
 -2.353  -4.056   0.002   0.000  -0.001
 -4.056  -6.907   0.005   0.001  -0.002
  0.002   0.005  -0.332   0.000  -0.002
  0.000   0.001   0.000  -0.336   0.000
 -0.001  -0.002  -0.002   0.000  -0.335
 total augmentation occupancy for first ion, spin component:           1
  3.526  -0.635  -0.402  -0.046   0.178
 -0.635   0.129   0.074   0.009  -0.032
 -0.402   0.074   0.047   0.004  -0.018
 -0.046   0.009   0.004   0.009  -0.002
  0.178  -0.032  -0.018  -0.002   0.016


------------------------ aborting loop because EDIFF is reached ----------------------------------------


    CHARGE:  cpu time   16.4655: real time   16.4523
    FORLOC:  cpu time    5.8041: real time    5.7994
    FORNL :  cpu time   60.3018: real time   60.2509
    STRESS:  cpu time  183.4921: real time  183.3385
    FORCOR:  cpu time   23.9214: real time   23.9022
    FORHAR:  cpu time   10.5874: real time   10.5780
    MIXING:  cpu time    0.7909: real time    0.7900
    OFIELD:  cpu time    0.0000: real time    0.0000

  FORCE on cell =-STRESS in cart. coord.  units (eV):
  Direction    XX          YY          ZZ          XY          YZ          ZX
  --------------------------------------------------------------------------------------
  Alpha Z     0.51957     0.51957     0.51957
  Ewald    3122.28516  2178.56698   800.27153    20.24847    88.82863   762.87083
  Hartree  3608.81656  2687.46572  1808.32709     7.08849   152.61754   601.39715
  E(xc)    -229.70265  -229.46991  -231.94111    -0.03081    -0.55229     0.80139
  Local   -7331.64450 -5447.08261 -3250.46424   -28.51266  -262.98598 -1348.82391
  n-local  -132.61795  -134.99370  -131.95795     0.77934     1.51966    -1.30923
  augment    14.55118    14.18489    14.71724    -0.09129     0.70764    -0.17403
  Kinetic   943.83578   927.38270   986.87043     0.59386    19.70485   -14.50987
  Fock        0.00000     0.00000     0.00000     0.00000     0.00000     0.00000
  -------------------------------------------------------------------------------------
  Total      -3.95684    -3.42635    -3.65744     0.07540    -0.15995     0.25232
  in kB      -0.23480    -0.20332    -0.21703     0.00447    -0.00949     0.01497
  external pressure =       -0.22 kB  Pullay stress =        0.00 kB


 VOLUME and BASIS-vectors are now :
 -----------------------------------------------------------------------------
  energy-cutoff  :      400.00
  volume of cell :    27000.00
      direct lattice vectors                 reciprocal lattice vectors
    30.000000000  0.000000000  0.000000000     0.033333333  0.000000000  0.000000000
     0.000000000 30.000000000  0.000000000     0.000000000  0.033333333  0.000000000
     0.000000000  0.000000000 30.000000000     0.000000000  0.000000000  0.033333333

  length of vectors
    30.000000000 30.000000000 30.000000000     0.033333333  0.033333333  0.033333333


 FORCES acting on ions
    electron-ion (+dipol)            ewald-force                    non-local-force                 convergence-correction
 -----------------------------------------------------------------------------------------------
   0.632E+02 -.584E+02 -.748E+01   -.655E+02 0.636E+02 0.807E+01   0.229E+01 -.514E+01 -.582E+00   0.166E-04 0.165E-04 0.132E-04
   0.569E+02 0.253E+02 0.591E+02   -.587E+02 -.273E+02 -.639E+02   0.183E+01 0.208E+01 0.472E+01   0.385E-05 0.182E-04 0.200E-04
   0.585E+02 0.369E+02 -.491E+02   -.603E+02 -.400E+02 0.532E+02   0.182E+01 0.318E+01 -.409E+01   0.830E-05 0.195E-04 0.726E-05
   0.626E+02 0.948E+02 -.257E+02   -.667E+02 -.101E+03 0.273E+02   0.415E+01 0.596E+01 -.159E+01   -.118E-04 0.259E-04 0.851E-05
   -.686E+01 0.981E+02 -.304E+02   0.771E+01 -.103E+03 0.328E+02   -.832E+00 0.517E+01 -.243E+01   -.194E-04 0.195E-04 -.735E-07
   -.770E+02 0.299E+02 0.360E+02   0.825E+02 -.308E+02 -.360E+02   -.548E+01 0.934E+00 -.119E+00   -.265E-05 0.869E-05 -.296E-05
   -.900E+01 -.386E+02 0.755E+02   0.811E+01 0.434E+02 -.782E+02   0.880E+00 -.482E+01 0.269E+01   -.951E-05 0.154E-04 0.192E-05
   0.137E+02 0.648E+02 0.633E+02   -.160E+02 -.688E+02 -.662E+02   0.230E+01 0.406E+01 0.289E+01   -.280E-05 0.147E-04 0.441E-05
   0.317E+02 -.662E+02 0.270E+02   -.372E+02 0.685E+02 -.307E+02   0.555E+01 -.235E+01 0.374E+01   -.395E-04 0.328E-04 0.963E-05
   -.706E+02 -.345E+01 -.512E+02   0.744E+02 0.460E+00 0.543E+02   -.382E+01 0.300E+01 -.311E+01   -.740E-05 0.270E-04 0.535E-05
   -.540E+02 -.542E+02 0.421E+02   0.567E+02 0.565E+02 -.463E+02   -.266E+01 -.224E+01 0.426E+01   -.822E-05 0.281E-04 -.564E-05
   0.526E+01 -.729E+02 -.482E+02   -.741E+01 0.770E+02 0.514E+02   0.213E+01 -.411E+01 -.312E+01   -.204E-04 0.265E-04 0.352E-05
   0.227E+03 0.370E+01 0.151E+01   -.228E+03 -.283E+01 -.124E+01   0.826E+00 -.878E+00 -.276E+00   0.349E-04 0.755E-04 0.547E-04
   0.183E+03 0.128E+02 0.569E+01   -.188E+03 -.128E+02 -.574E+01   0.500E+01 -.205E-01 0.314E-01   -.499E-04 0.119E-03 0.101E-03
   -.235E+02 0.162E+03 0.494E+01   0.289E+02 -.164E+03 -.476E+01   -.539E+01 0.126E+01 -.188E+00   -.759E-04 0.613E-04 0.324E-04
   -.810E+02 0.945E+02 0.204E+03   0.814E+02 -.944E+02 -.205E+03   -.333E+00 -.146E+00 0.874E+00   -.743E-04 0.270E-04 0.113E-04
   -.109E+02 0.362E+02 -.404E+02   0.826E+01 -.383E+02 0.388E+02   0.268E+01 0.210E+01 0.161E+01   -.803E-04 0.807E-04 0.189E-04
   -.144E+03 -.187E+03 -.721E+02   0.148E+03 0.190E+03 0.741E+02   -.414E+01 -.286E+01 -.205E+01   -.532E-04 0.126E-03 0.131E-04
   0.127E+03 0.192E+03 -.597E+02   -.124E+03 -.191E+03 0.623E+02   -.317E+01 -.871E+00 -.259E+01   -.956E-04 0.115E-03 0.124E-03
   -.164E+02 -.198E+03 -.424E+02   0.125E+02 0.202E+03 0.439E+02   0.387E+01 -.353E+01 -.147E+01   -.961E-04 0.119E-03 -.294E-04
   0.488E+02 -.368E+03 0.154E+03   -.307E+02 0.414E+03 -.169E+03   -.182E+02 -.458E+02 0.147E+02   -.784E-04 0.188E-03 0.170E-03
   -.334E+03 0.216E+03 -.236E+03   0.374E+03 -.241E+03 0.261E+03   -.395E+02 0.249E+02 -.250E+02   -.873E-04 0.123E-03 -.838E-05
 -----------------------------------------------------------------------------------------------
   0.501E+02 0.201E+02 0.111E+02   -.568E-13 0.568E-13 -.568E-13   -.501E+02 -.201E+02 -.111E+02   -.749E-03 0.129E-02 0.552E-03
 
 
 POSITION                                       TOTAL-FORCE (eV/Angst)
 -----------------------------------------------------------------------------------
     11.28835     16.04790     14.87531         0.017064     -0.000307      0.002334
     11.37666     14.62752     13.80802        -0.005511      0.008251     -0.009208
     11.39055     14.40179     15.57460         0.014342     -0.006588     -0.009118
     13.36660     13.25426     15.26029         0.008851      0.012487      0.077340
     15.50398     12.80306     15.42243         0.011914     -0.002632     -0.005083
     16.99911     13.55640     13.55662        -0.021906     -0.014441     -0.033947
     15.73760     14.69136     13.00416        -0.016927      0.007519     -0.001874
     15.44306     12.92678     12.95926        -0.048623      0.013668     -0.002917
     15.38805     16.35664     15.17187         0.025655     -0.003532     -0.021233
     17.94504     16.36835     16.77473        -0.008157      0.012340      0.026771
     17.74225     17.38286     15.31826         0.003985      0.028917      0.031028
     16.78739     17.73974     16.78680        -0.026697     -0.008183      0.019853
     11.73395     15.05374     14.75815         0.008772     -0.002302     -0.009048
     13.24501     15.19348     14.71325         0.000403     -0.030932     -0.014197
     15.38509     13.79586     14.96772         0.004885     -0.000453     -0.001571
     15.91550     13.74171     13.52623        -0.019723      0.001336     -0.010760
     16.35482     14.67471     15.79847         0.028720     -0.020443      0.008109
     17.21772     16.93223     16.17779        -0.001892      0.005561      0.016683
     13.93642     14.06766     15.04564         0.007723      0.001901      0.015251
     16.19240     16.01437     15.72163         0.013324      0.006821     -0.021002
     13.78499     16.26586     14.38734         0.021304     -0.014602     -0.059947
     17.29107     14.10979     16.38377        -0.017505      0.005617      0.002539
 -----------------------------------------------------------------------------------
    total drift:                               -0.004846      0.011057      0.000960


--------------------------------------------------------------------------------------------------------



  FREE ENERGIE OF THE ION-ELECTRON SYSTEM (eV)
  ---------------------------------------------------
  free  energy   TOTEN  =      -129.37907192 eV

  energy  without entropy=     -129.37907192  energy(sigma->0) =     -129.37907192
 
 d Force = 0.1137895E-03[ 0.113E-03, 0.114E-03]  d Energy = 0.1140309E-03-0.241E-06
 d Force = 0.1161868E-02[ 0.119E-02, 0.113E-02]  d Ewald  = 0.1161867E-02 0.565E-09


--------------------------------------------------------------------------------------------------------


    POTLOK:  cpu time   21.7417: real time   21.7248


--------------------------------------------------------------------------------------------------------


 NEB: the previous image is higher in energy: T
 NEB: the next image is higher in energy    : F
 NEB: only prev energy greater

 NEB: Tangent
 ----------------------------------------------
      0.04527     -0.01228     -0.01960
     -0.01543     -0.00180     -0.03915
      0.03869     -0.02223     -0.04136
      0.02978     -0.03714     -0.00405
      0.04588     -0.08168     -0.24794
      0.04971      0.23606     -0.15655
      0.01375      0.27373     -0.01675
      0.07799      0.24954     -0.25388
      0.02468     -0.04454      0.02132
     -0.16242     -0.08218      0.37322
      0.06008     -0.07657      0.32837
     -0.17065     -0.07515      0.20486
      0.02467     -0.01929     -0.04524
      0.02672     -0.04974     -0.09602
      0.02333     -0.01369     -0.11927
      0.04207      0.20102     -0.13723
     -0.03337     -0.07283      0.03154
     -0.07978     -0.07563      0.25999
      0.02102     -0.04829     -0.08284
     -0.03531     -0.06444      0.10314
      0.04857     -0.07431     -0.15032
     -0.08191     -0.09723      0.09042

 NEB: forces: par spring, perp REAL, dneb     0.000776    0.152581    0.000000
 NEB: distance to prev, next image, angle between     1.135727    1.135572  162.565944
 NEB: projections on to tangent (spring, REAL)    -0.000776    0.052511

 stress matrix after NEB project (eV)
     -3.95684      0.07540      0.25232
      0.07540     -3.42635     -0.15995
      0.25232     -0.15995     -3.65744
  FORCES: max atom, RMS     0.079227    0.032531
  FORCE total and by dimension    0.152583    0.077556
  Stress total and by dimension    6.400252    3.956845
 OPT: skip step - force has converged


--------------------------------------------------------------------------------------------------------


  
 reached required accuracy - stopping structural energy minimisation
     LOOP+:  cpu time 1817.8276: real time 1816.3416
    4ORBIT:  cpu time    0.0000: real time    0.0000

 total amount of memory used by VASP on root node  4333710. kBytes
========================================================================

   base      :      30000. kBytes
   nonlr-proj:       2405. kBytes
   fftplans  :     924480. kBytes
   grid      :    2089440. kBytes
   one-center:         67. kBytes
   wavefun   :    1287318. kBytes
 
  
  
 General timing and accounting informations for this job:
 ========================================================
  
                  Total CPU time used (sec):   123722.594
                            User time (sec):   122949.995
                          System time (sec):      772.599
                         Elapsed time (sec):   123693.243
  
                   Maximum memory used (kb):     5901416.
                   Average memory used (kb):           0.
  
                          Minor page faults:    182545159
                          Major page faults:            9
                 Voluntary context switches:         7919
