unknown system                          
           1
    30.000000    0.000000    0.000000
     0.000000   30.000000    0.000000
     0.000000    0.000000   30.000000
   H    C    N    O 
  12   6   2   2
Direct configuration=     1
   0.37585753  0.53493342  0.49655465
   0.37997929  0.48702019  0.46148026
   0.38131982  0.48051959  0.52044119
   0.44467915  0.44195176  0.49820066
   0.51532686  0.42635075  0.51368392
   0.56962228  0.45536465  0.45426326
   0.52572927  0.48958894  0.43352955
   0.52090681  0.43022725  0.43202579
   0.50900088  0.54443674  0.50929487
   0.59711729  0.54347660  0.55725801
   0.58901498  0.57461515  0.50734428
   0.56229193  0.59242306  0.55750642
   0.39143905  0.50222523  0.49276010
   0.44145839  0.50805795  0.49144025
   0.51267596  0.45969205  0.49856361
   0.53323369  0.45865517  0.45155972
   0.54337598  0.48891472  0.52810275
   0.57284530  0.56310440  0.53831803
   0.46439619  0.46949419  0.49839933
   0.53620395  0.53342531  0.52768081
   0.45870342  0.54522968  0.48506665
   0.57564679  0.47054436  0.54628150
Direct configuration=     2
   0.37581795  0.53497070  0.49653667
   0.37991177  0.48702186  0.46143162
   0.38127351  0.48050129  0.52045837
   0.44471305  0.44190280  0.49833355
   0.51533940  0.42640314  0.51363318
   0.56961302  0.45534977  0.45427050
   0.52571979  0.48963237  0.43350948
   0.52083716  0.43023578  0.43201708
   0.50912140  0.54449073  0.50932204
   0.59718723  0.54355385  0.55735155
   0.58902826  0.57466528  0.50737107
   0.56221542  0.59238755  0.55754944
   0.39140103  0.50222372  0.49273427
   0.44151547  0.50801755  0.49141753
   0.51264621  0.45973064  0.49867468
   0.53323501  0.45864319  0.45154171
   0.54339647  0.48888316  0.52802484
   0.57287546  0.56311027  0.53831759
   0.46444502  0.46942610  0.49837418
   0.53626610  0.53338618  0.52761729
   0.45864989  0.54523531  0.48500362
   0.57561605  0.47048015  0.54626539
Direct configuration=     3
   0.37576953  0.53501164  0.49650841
   0.37981484  0.48702898  0.46137041
   0.38120734  0.48048652  0.52046694
   0.44476196  0.44182561  0.49853321
   0.51536208  0.42645172  0.51358121
   0.56960286  0.45532400  0.45427929
   0.52571076  0.48967460  0.43349248
   0.52073329  0.43024703  0.43200871
   0.50927657  0.54457612  0.50934405
   0.59727891  0.54367633  0.55747571
   0.58905319  0.57474450  0.50740596
   0.56210352  0.59232853  0.55760457
   0.39135933  0.50221014  0.49270455
   0.44155110  0.50795925  0.49138006
   0.51262888  0.45977600  0.49874433
   0.53321616  0.45865203  0.45153580
   0.54343008  0.48884387  0.52794374
   0.57292051  0.56311054  0.53834067
   0.46448726  0.46937024  0.49834592
   0.53639506  0.53334116  0.52754001
   0.45858599  0.54522680  0.48491463
   0.57557528  0.47038609  0.54623510
Direct configuration=     4
   0.37572570  0.53503729  0.49646944
   0.37969654  0.48704521  0.46131058
   0.38112534  0.48048273  0.52045554
   0.44482894  0.44173159  0.49879379
   0.51539625  0.42648082  0.51354211
   0.56958583  0.45528628  0.45428690
   0.52570503  0.48970359  0.43348558
   0.52060247  0.43026789  0.43200949
   0.50945402  0.54468634  0.50935387
   0.59738546  0.54384084  0.55761763
   0.58909126  0.57485193  0.50745248
   0.56196197  0.59224556  0.55766399
   0.39131619  0.50218420  0.49267314
   0.44153371  0.50790052  0.49132601
   0.51263542  0.45981427  0.49872186
   0.53317369  0.45868280  0.45154171
   0.54347321  0.48880796  0.52788077
   0.57298527  0.56310943  0.53839244
   0.46449733  0.46934063  0.49832323
   0.53658536  0.53330507  0.52745268
   0.45852507  0.54518660  0.48480804
   0.57554029  0.47026039  0.54619450
Direct configuration=     5
   0.37569711  0.53503172  0.49642016
   0.37956431  0.48707254  0.46126402
   0.38102966  0.48049125  0.52042003
   0.44491660  0.44163758  0.49910972
   0.51544085  0.42649335  0.51351675
   0.56954823  0.45523668  0.45429024
   0.52570268  0.48972000  0.43348851
   0.52045345  0.43030958  0.43202857
   0.50965523  0.54480794  0.50935392
   0.59750933  0.54403777  0.55777203
   0.58914266  0.57498564  0.50752236
   0.56179589  0.59214393  0.55772439
   0.39126075  0.50215422  0.49263504
   0.44145395  0.50785117  0.49125660
   0.51265880  0.45983405  0.49861288
   0.53311977  0.45871627  0.45154035
   0.54352423  0.48877872  0.52783979
   0.57307788  0.56312255  0.53846081
   0.46446567  0.46932799  0.49831168
   0.53680594  0.53328866  0.52734774
   0.45847720  0.54510802  0.48468893
   0.57552407  0.47010252  0.54615134
Direct configuration=     6
   0.37568533  0.53499281  0.49636214
   0.37942146  0.48710917  0.46123401
   0.38091969  0.48050774  0.52036273
   0.44501862  0.44155296  0.49947887
   0.51549290  0.42650606  0.51349407
   0.56947851  0.45517435  0.45428530
   0.52570238  0.48973406  0.43349435
   0.52029130  0.43037686  0.43206655
   0.50988405  0.54492721  0.50934606
   0.59765961  0.54425476  0.55793995
   0.58921157  0.57514732  0.50762777
   0.56160912  0.59203532  0.55778784
   0.39117758  0.50212877  0.49258343
   0.44132877  0.50780301  0.49117764
   0.51267610  0.45983258  0.49847592
   0.53307195  0.45872973  0.45150517
   0.54358861  0.48874727  0.52780777
   0.57319685  0.56316481  0.53852672
   0.46440681  0.46931764  0.49831206
   0.53703016  0.53328862  0.52722148
   0.45844800  0.54499876  0.48455625
   0.57552481  0.46992241  0.54610976
Direct configuration=     7
   0.37567739  0.53493690  0.49629239
   0.37924810  0.48715097  0.46120716
   0.38077795  0.48052552  0.52028225
   0.44512584  0.44146630  0.49994743
   0.51555299  0.42653701  0.51345535
   0.56937043  0.45508645  0.45426408
   0.52570349  0.48976065  0.43349200
   0.52009426  0.43046297  0.43210951
   0.51015876  0.54504486  0.50931909
   0.59786111  0.54450635  0.55813936
   0.58932199  0.57536779  0.50778609
   0.56138434  0.59192745  0.55786765
   0.39105304  0.50210278  0.49251147
   0.44118655  0.50773125  0.49108799
   0.51265922  0.45982559  0.49838399
   0.53303084  0.45872192  0.45141875
   0.54368109  0.48869636  0.52775280
   0.57334100  0.56324220  0.53858920
   0.46434627  0.46929775  0.49832330
   0.53728760  0.53328117  0.52707160
   0.45843349  0.54485729  0.48438936
   0.57552856  0.46972253  0.54606497
Direct configuration=     8
   0.37564507  0.53491491  0.49621705
   0.37903080  0.48718069  0.46115265
   0.38059350  0.48053110  0.52018906
   0.44520951  0.44137231  0.50052599
   0.51561194  0.42658187  0.51339298
   0.56925464  0.45496058  0.45421557
   0.52570673  0.48981118  0.43346681
   0.51984583  0.43052490  0.43211316
   0.51046562  0.54514560  0.50925529
   0.59810534  0.54479511  0.55835761
   0.58950211  0.57567215  0.50798659
   0.56112761  0.59184304  0.55797059
   0.39091533  0.50205899  0.49242845
   0.44109401  0.50762314  0.49099403
   0.51260673  0.45985901  0.49838392
   0.53296301  0.45872748  0.45132482
   0.54379407  0.48862924  0.52764166
   0.57348886  0.56332409  0.53867544
   0.46430858  0.46925110  0.49834957
   0.53760882  0.53323672  0.52691593
   0.45841873  0.54468369  0.48417997
   0.57552771  0.46952474  0.54601857
Direct configuration=     9
   0.37557454  0.53495508  0.49614014
   0.37876222  0.48718262  0.46104355
   0.38035579  0.48050760  0.52009650
   0.44525269  0.44128386  0.50122367
   0.51566079  0.42662229  0.51331357
   0.56915458  0.45478596  0.45412560
   0.52571317  0.48989273  0.43340692
   0.51953635  0.43054235  0.43204673
   0.51082311  0.54519446  0.50915669
   0.59837003  0.54512603  0.55857844
   0.58976799  0.57607626  0.50823642
   0.56085264  0.59178666  0.55809528
   0.39081001  0.50200136  0.49234034
   0.44106379  0.50746949  0.49090241
   0.51256055  0.45994790  0.49842207
   0.53281624  0.45876230  0.45128993
   0.54393083  0.48856402  0.52749516
   0.57363738  0.56339536  0.53881439
   0.46428087  0.46914798  0.49841446
   0.53796578  0.53318070  0.52672837
   0.45840731  0.54449029  0.48391829
   0.57552832  0.46933559  0.54596664
Direct configuration=    10
   0.37550303  0.53499932  0.49605596
   0.37846754  0.48716807  0.46090762
   0.38006573  0.48045346  0.51999533
   0.44523903  0.44120593  0.50206082
   0.51569893  0.42666654  0.51322431
   0.56900081  0.45456053  0.45397615
   0.52572304  0.48998989  0.43332035
   0.51917918  0.43058544  0.43194718
   0.51124106  0.54516276  0.50900979
   0.59864021  0.54548140  0.55880730
   0.59010211  0.57657158  0.50860918
   0.56058462  0.59173587  0.55823448
   0.39071426  0.50197107  0.49222495
   0.44103869  0.50727968  0.49081366
   0.51255529  0.45999291  0.49840322
   0.53260590  0.45876601  0.45127021
   0.54410642  0.48853978  0.52739161
   0.57379015  0.56352625  0.53895960
   0.46424379  0.46901579  0.49856250
   0.53834332  0.53316851  0.52648210
   0.45842727  0.54425702  0.48359475
   0.57555528  0.46915188  0.54590424
Direct configuration=    11
   0.37548025  0.53498345  0.49595687
   0.37820693  0.48717811  0.46081546
   0.37976257  0.48042380  0.51981912
   0.44517982  0.44115087  0.50303407
   0.51574547  0.42669278  0.51315223
   0.56870038  0.45428896  0.45376452
   0.52573712  0.49002496  0.43325966
   0.51878404  0.43071707  0.43186643
   0.51162866  0.54509015  0.50874790
   0.59887041  0.54584077  0.55903724
   0.59047571  0.57714070  0.50911313
   0.56034281  0.59168915  0.55839709
   0.39055064  0.50192155  0.49210126
   0.44096234  0.50713589  0.49071675
   0.51255911  0.45995352  0.49833587
   0.53241920  0.45873254  0.45110840
   0.54428494  0.48855404  0.52732590
   0.57395468  0.56373368  0.53908154
   0.46418429  0.46889850  0.49881613
   0.53884712  0.53319578  0.52623328
   0.45849403  0.54391555  0.48321269
   0.57565623  0.46898604  0.54585938
Direct configuration=    12
   0.37548838  0.53493827  0.49584661
   0.37800524  0.48721426  0.46073982
   0.37945847  0.48041604  0.51958355
   0.44511490  0.44117428  0.50413676
   0.51583264  0.42662878  0.51313812
   0.56836595  0.45394321  0.45348782
   0.52573579  0.49000868  0.43320916
   0.51828924  0.43084202  0.43173516
   0.51208482  0.54496355  0.50842447
   0.59901391  0.54620581  0.55924795
   0.59091013  0.57781787  0.50961863
   0.56013101  0.59168369  0.55861324
   0.39040316  0.50184826  0.49199300
   0.44077483  0.50679441  0.49066396
   0.51253817  0.45999020  0.49826656
   0.53218271  0.45873150  0.45091977
   0.54460459  0.48844194  0.52728315
   0.57417943  0.56393947  0.53930623
   0.46405058  0.46881211  0.49917213
   0.53922987  0.53330325  0.52583064
   0.45868031  0.54362779  0.48272693
   0.57575435  0.46891948  0.54581057
Direct configuration=    13
   0.37549004  0.53494347  0.49584637
   0.37801269  0.48721362  0.46072937
   0.37945266  0.48040652  0.51959272
   0.44511421  0.44117384  0.50415748
   0.51583503  0.42663977  0.51313270
   0.56837504  0.45393049  0.45347926
   0.52572731  0.49002447  0.43319662
   0.51826869  0.43083519  0.43172362
   0.51205747  0.54497878  0.50838951
   0.59901803  0.54618511  0.55926387
   0.59091310  0.57782784  0.50962210
   0.56013850  0.59169014  0.55862619
   0.39041545  0.50185322  0.49199172
   0.44083507  0.50690797  0.49064368
   0.51253569  0.45997003  0.49829076
   0.53215966  0.45871759  0.45094278
   0.54454068  0.48852860  0.52722791
   0.57414609  0.56395328  0.53927697
   0.46406446  0.46880422  0.49918733
   0.53928687  0.53324186  0.52585406
   0.45862896  0.54351987  0.48273010
   0.57581294  0.46889873  0.54584907
Direct configuration=    14
   0.37549336  0.53495284  0.49584516
   0.37803203  0.48721426  0.46070885
   0.37944577  0.48038949  0.51960636
   0.44511227  0.44117704  0.50420403
   0.51584603  0.42665322  0.51312284
   0.56838679  0.45390804  0.45345615
   0.52570996  0.49005541  0.43317555
   0.51822447  0.43082951  0.43169466
   0.51203546  0.54499486  0.50833569
   0.59901030  0.54614903  0.55929745
   0.59092032  0.57784907  0.50963490
   0.56014657  0.59170032  0.55865805
   0.39044264  0.50186329  0.49198865
   0.44089699  0.50699511  0.49062917
   0.51252871  0.45994370  0.49833317
   0.53211880  0.45869755  0.45097777
   0.54450452  0.48859889  0.52717079
   0.57410046  0.56396784  0.53924534
   0.46408692  0.46880139  0.49921902
   0.53934304  0.53318415  0.52586250
   0.45858725  0.54341590  0.48270397
   0.57585611  0.46890344  0.54588407
Direct configuration=    15
   0.37549375  0.53495322  0.49584492
   0.37803500  0.48721506  0.46070787
   0.37944662  0.48038937  0.51960557
   0.44511230  0.44117901  0.50420892
   0.51584827  0.42665135  0.51312389
   0.56838454  0.45390632  0.45345338
   0.52570861  0.49005522  0.43317605
   0.51822010  0.43083059  0.43169238
   0.51204269  0.54499205  0.50833599
   0.59900519  0.54614864  0.55929809
   0.59092084  0.57785123  0.50963609
   0.56014596  0.59170034  0.55866095
   0.39044436  0.50186329  0.49198892
   0.44088608  0.50696579  0.49063512
   0.51252813  0.45994656  0.49833406
   0.53211764  0.45869820  0.45097658
   0.54452275  0.48857926  0.52717923
   0.57410423  0.56396537  0.53925034
   0.46408663  0.46880352  0.49922246
   0.53933127  0.53319779  0.52585223
   0.45860026  0.54343798  0.48269394
   0.57584355  0.46891419  0.54587715
Direct configuration=    16
   0.37549468  0.53495398  0.49584443
   0.37804099  0.48721665  0.46070591
   0.37944815  0.48038909  0.51960403
   0.44511245  0.44118285  0.50421895
   0.51585257  0.42664783  0.51312603
   0.56838000  0.45390260  0.45344790
   0.52570584  0.49005471  0.43317701
   0.51821119  0.43083258  0.43168803
   0.51205571  0.54498710  0.50833547
   0.59899535  0.54614756  0.55929935
   0.59092193  0.57785569  0.50963842
   0.56014507  0.59170042  0.55866667
   0.39044758  0.50186311  0.49198954
   0.44086773  0.50691490  0.49064549
   0.51252721  0.45995165  0.49833599
   0.53211500  0.45869925  0.45097436
   0.54455459  0.48854537  0.52719347
   0.57411088  0.56396112  0.53925933
   0.46408617  0.46880706  0.49922971
   0.53931047  0.53322181  0.52583324
   0.45862294  0.54347551  0.48267524
   0.57582230  0.46893350  0.54586552
Direct configuration=    17
   0.37549668  0.53495509  0.49584363
   0.37805059  0.48721920  0.46070281
   0.37945015  0.48038847  0.51960168
   0.44511297  0.44118856  0.50423553
   0.51585893  0.42664272  0.51312925
   0.56837270  0.45389619  0.45343921
   0.52570131  0.49005380  0.43317851
   0.51819671  0.43083563  0.43168147
   0.51207199  0.54498116  0.50833137
   0.59898063  0.54614483  0.55930182
   0.59092378  0.57786295  0.50964248
   0.56014442  0.59170048  0.55867571
   0.39045199  0.50186223  0.49199068
   0.44084851  0.50685687  0.49065731
   0.51252644  0.45995784  0.49833936
   0.53210993  0.45870036  0.45097110
   0.54459145  0.48850756  0.52720821
   0.57411864  0.56395633  0.53927097
   0.46408599  0.46881028  0.49924222
   0.53928564  0.53325028  0.52580782
   0.45864947  0.54351604  0.48264923
   0.57579992  0.46895744  0.54585375
Direct configuration=    18
   0.37549696  0.53495513  0.49584357
   0.37805127  0.48721937  0.46070260
   0.37945018  0.48038837  0.51960155
   0.44511306  0.44118881  0.50423684
   0.51585926  0.42664250  0.51312939
   0.56837217  0.45389565  0.45343859
   0.52570096  0.49005375  0.43317860
   0.51819564  0.43083585  0.43168109
   0.51207195  0.54498126  0.50833023
   0.59897985  0.54614436  0.55930217
   0.59092394  0.57786348  0.50964292
   0.56014454  0.59170044  0.55867633
   0.39045212  0.50186203  0.49199078
   0.44084961  0.50685854  0.49065695
   0.51252658  0.45995775  0.49833965
   0.53210935  0.45870031  0.45097093
   0.54459051  0.48850900  0.52720722
   0.57411843  0.56395651  0.53927110
   0.46408614  0.46880991  0.49924331
   0.53928609  0.53324976  0.52580734
   0.45864896  0.54351413  0.48264834
   0.57580124  0.46895738  0.54585464
Direct configuration=    19
   0.37549752  0.53495520  0.49584344
   0.37805263  0.48721973  0.46070217
   0.37945024  0.48038818  0.51960128
   0.44511324  0.44118932  0.50423946
   0.51585992  0.42664205  0.51312968
   0.56837112  0.45389457  0.45343737
   0.52570027  0.49005366  0.43317878
   0.51819350  0.43083629  0.43168033
   0.51207189  0.54498144  0.50832795
   0.59897830  0.54614342  0.55930285
   0.59092426  0.57786455  0.50964378
   0.56014478  0.59170038  0.55867758
   0.39045239  0.50186164  0.49199098
   0.44085177  0.50686176  0.49065626
   0.51252684  0.45995756  0.49834022
   0.53210821  0.45870018  0.45097059
   0.54458870  0.48851181  0.52720530
   0.57411800  0.56395686  0.53927136
   0.46408646  0.46880921  0.49924550
   0.53928696  0.53324877  0.52580635
   0.45864801  0.54351039  0.48264653
   0.57580381  0.46895731  0.54585636
Direct configuration=    20
   0.37549835  0.53495529  0.49584325
   0.37805468  0.48722026  0.46070153
   0.37945034  0.48038789  0.51960088
   0.44511348  0.44119008  0.50424341
   0.51586092  0.42664139  0.51313014
   0.56836953  0.45389293  0.45343552
   0.52569922  0.49005352  0.43317904
   0.51819028  0.43083694  0.43167919
   0.51207185  0.54498172  0.50832455
   0.59897596  0.54614201  0.55930387
   0.59092473  0.57786615  0.50964507
   0.56014515  0.59170027  0.55867944
   0.39045284  0.50186108  0.49199128
   0.44085485  0.50686627  0.49065530
   0.51252723  0.45995728  0.49834107
   0.53210649  0.45869997  0.45097009
   0.54458622  0.48851581  0.52720255
   0.57411738  0.56395738  0.53927175
   0.46408695  0.46880822  0.49924878
   0.53928820  0.53324741  0.52580481
   0.45864670  0.54350504  0.48264375
   0.57580748  0.46895732  0.54585883
Direct configuration=    21
   0.37549947  0.53495542  0.49584300
   0.37805743  0.48722098  0.46070066
   0.37945047  0.48038750  0.51960037
   0.44511378  0.44119108  0.50424874
   0.51586228  0.42664052  0.51313076
   0.56836738  0.45389072  0.45343305
   0.52569781  0.49005333  0.43317939
   0.51818593  0.43083782  0.43167768
   0.51207187  0.54498206  0.50832003
   0.59897283  0.54614012  0.55930521
   0.59092535  0.57786830  0.50964680
   0.56014563  0.59170013  0.55868193
   0.39045351  0.50186038  0.49199166
   0.44085869  0.50687167  0.49065414
   0.51252773  0.45995691  0.49834222
   0.53210419  0.45869967  0.45096943
   0.54458334  0.48852072  0.52719912
   0.57411658  0.56395806  0.53927227
   0.46408761  0.46880704  0.49925317
   0.53928974  0.53324582  0.52580265
   0.45864523  0.54349837  0.48263991
   0.57581202  0.46895761  0.54586190
Direct configuration=    22
   0.37550086  0.53495555  0.49584268
   0.37806092  0.48722188  0.46069956
   0.37945063  0.48038699  0.51959973
   0.44511410  0.44119230  0.50425550
   0.51586402  0.42663945  0.51313158
   0.56836464  0.45388791  0.45342992
   0.52569601  0.49005308  0.43317982
   0.51818041  0.43083892  0.43167581
   0.51207204  0.54498246  0.50831439
   0.59896888  0.54613775  0.55930688
   0.59092612  0.57787103  0.50964897
   0.56014622  0.59169996  0.55868506
   0.39045443  0.50185958  0.49199213
   0.44086305  0.50687741  0.49065292
   0.51252835  0.45995644  0.49834366
   0.53210129  0.45869923  0.45096862
   0.54458044  0.48852617  0.52719524
   0.57411560  0.56395889  0.53927294
   0.46408847  0.46880579  0.49925869
   0.53929147  0.53324421  0.52579976
   0.45864380  0.54349081  0.48263487
   0.57581712  0.46895840  0.54586539
Direct configuration=    23
   0.37550252  0.53495569  0.49584230
   0.37806516  0.48722298  0.46069823
   0.37945084  0.48038636  0.51959897
   0.44511442  0.44119373  0.50426374
   0.51586617  0.42663820  0.51313261
   0.56836129  0.45388447  0.45342612
   0.52569382  0.49005279  0.43318033
   0.51817369  0.43084024  0.43167358
   0.51207243  0.54498288  0.50830765
   0.59896412  0.54613488  0.55930884
   0.59092703  0.57787433  0.50965160
   0.56014692  0.59169973  0.55868884
   0.39045564  0.50185873  0.49199266
   0.44086764  0.50688281  0.49065177
   0.51252907  0.45995586  0.49834538
   0.53209779  0.45869863  0.45096766
   0.54457797  0.48853170  0.52719118
   0.57411449  0.56395985  0.53927374
   0.46408954  0.46880462  0.49926533
   0.53929326  0.53324284  0.52579605
   0.45864271  0.54348288  0.48262849
   0.57582239  0.46895996  0.54586904
Direct configuration=    24
   0.37550467  0.53495583  0.49584180
   0.37807071  0.48722440  0.46069648
   0.37945112  0.48038551  0.51959803
   0.44511474  0.44119552  0.50427456
   0.51586903  0.42663665  0.51313402
   0.56835686  0.45387993  0.45342117
   0.52569093  0.49005241  0.43318097
   0.51816486  0.43084196  0.43167073
   0.51207323  0.54498335  0.50829899
   0.59895793  0.54613116  0.55931133
   0.59092820  0.57787864  0.50965501
   0.56014780  0.59169943  0.55869372
   0.39045737  0.50185781  0.49199330
   0.44087260  0.50688759  0.49065076
   0.51252997  0.45995509  0.49834760
   0.53209325  0.45869774  0.45096647
   0.54457627  0.48853736  0.52718680
   0.57411311  0.56396105  0.53927477
   0.46409096  0.46880358  0.49927393
   0.53929517  0.53324191  0.52579090
   0.45864221  0.54347433  0.48261977
   0.57582794  0.46896287  0.54587298
Direct configuration=    25
   0.37550739  0.53495596  0.49584118
   0.37807782  0.48722622  0.46069425
   0.37945150  0.48038438  0.51959687
   0.44511501  0.44119771  0.50428848
   0.51587275  0.42663477  0.51313591
   0.56835115  0.45387407  0.45341485
   0.52568721  0.49005193  0.43318176
   0.51815353  0.43084411  0.43166720
   0.51207463  0.54498384  0.50828813
   0.59895009  0.54612642  0.55931440
   0.59092964  0.57788414  0.50965935
   0.56014886  0.59169903  0.55869989
   0.39045975  0.50185688  0.49199404
   0.44087757  0.50689065  0.49065013
   0.51253109  0.45995408  0.49835037
   0.53208745  0.45869646  0.45096500
   0.54457610  0.48854251  0.52718244
   0.57411145  0.56396250  0.53927605
   0.46409283  0.46880293  0.49928483
   0.53929701  0.53324187  0.52578390
   0.45864283  0.54346582  0.48260810
   0.57583330  0.46896775  0.54587692
Direct configuration=    26
   0.37551076  0.53495603  0.49584041
   0.37808677  0.48722850  0.46069144
   0.37945197  0.48038292  0.51959547
   0.44511520  0.44120035  0.50430608
   0.51587752  0.42663256  0.51313841
   0.56834388  0.45386660  0.45340693
   0.52568250  0.49005132  0.43318273
   0.51813922  0.43084677  0.43166293
   0.51207685  0.54498432  0.50827473
   0.59894036  0.54612052  0.55931807
   0.59093142  0.57789104  0.50966477
   0.56015013  0.59169850  0.55870754
   0.39046297  0.50185604  0.49199488
   0.44088211  0.50689082  0.49065015
   0.51253246  0.45995278  0.49835377
   0.53208017  0.45869467  0.45096328
   0.54457832  0.48854648  0.52717847
   0.57410951  0.56396423  0.53927758
   0.46409523  0.46880290  0.49929840
   0.53929863  0.53324323  0.52577462
   0.45864513  0.54345808  0.48259284
   0.57583793  0.46897527  0.54588053
Direct configuration=    27
   0.37551491  0.53495603  0.49583947
   0.37809788  0.48723131  0.46068798
   0.37945256  0.48038106  0.51959381
   0.44511529  0.44120351  0.50432810
   0.51588352  0.42663002  0.51314168
   0.56833472  0.45385716  0.45339712
   0.52567658  0.49005055  0.43318389
   0.51812134  0.43084999  0.43165787
   0.51208014  0.54498477  0.50825834
   0.59892846  0.54611325  0.55932237
   0.59093357  0.57789961  0.50967146
   0.56015161  0.59169781  0.55871689
   0.39046720  0.50185536  0.49199581
   0.44088587  0.50688704  0.49065105
   0.51253418  0.45995107  0.49835788
   0.53207113  0.45869216  0.45096128
   0.54458367  0.48854877  0.52717516
   0.57410724  0.56396630  0.53927935
   0.46409824  0.46880372  0.49931515
   0.53929988  0.53324650  0.52576258
   0.45864967  0.54345169  0.48257321
   0.57584145  0.46898611  0.54588355
Direct configuration=    28
   0.37552004  0.53495591  0.49583835
   0.37811163  0.48723476  0.46068374
   0.37945325  0.48037869  0.51959182
   0.44511531  0.44120735  0.50435559
   0.51589101  0.42662716  0.51314598
   0.56832321  0.45384524  0.45338504
   0.52566917  0.49004953  0.43318532
   0.51809902  0.43085381  0.43165199
   0.51208470  0.54498522  0.50823825
   0.59891402  0.54610431  0.55932730
   0.59093618  0.57791023  0.50967967
   0.56015334  0.59169690  0.55872822
   0.39047270  0.50185489  0.49199682
   0.44088877  0.50687879  0.49065295
   0.51253640  0.45994884  0.49836279
   0.53205991  0.45868869  0.45095904
   0.54459254  0.48854931  0.52717254
   0.57410455  0.56396883  0.53928128
   0.46410197  0.46880550  0.49933582
   0.53930078  0.53325208  0.52574719
   0.45865684  0.54344672  0.48254831
   0.57584387  0.46900085  0.54588596
Direct configuration=    29
   0.37552642  0.53495562  0.49583701
   0.37812865  0.48723902  0.46067855
   0.37945403  0.48037569  0.51958940
   0.44511537  0.44121213  0.50439004
   0.51590032  0.42662398  0.51315167
   0.56830868  0.45383006  0.45337016
   0.52565986  0.49004813  0.43318710
   0.51807107  0.43085828  0.43164525
   0.51209068  0.54498575  0.50821336
   0.59889659  0.54609334  0.55933283
   0.59093941  0.57792347  0.50968975
   0.56015535  0.59169570  0.55874192
   0.39047972  0.50185462  0.49199795
   0.44089128  0.50686677  0.49065574
   0.51253933  0.45994588  0.49836864
   0.53204591  0.45868390  0.45095656
   0.54460461  0.48854897  0.52717007
   0.57410127  0.56397203  0.53928321
   0.46410656  0.46880809  0.49936156
   0.53930159  0.53326001  0.52572784
   0.45866663  0.54344217  0.48251713
   0.57584601  0.46901980  0.54588819
Direct configuration=    30
   0.37553445  0.53495514  0.49583542
   0.37814968  0.48724426  0.46067224
   0.37945486  0.48037194  0.51958637
   0.44511571  0.44121819  0.50443330
   0.51591178  0.42662047  0.51315922
   0.56829031  0.45381063  0.45335183
   0.52564813  0.49004610  0.43318939
   0.51803598  0.43086337  0.43163772
   0.51209806  0.54498654  0.50818217
   0.59887569  0.54607985  0.55933881
   0.59094346  0.57794003  0.50970210
   0.56015770  0.59169411  0.55875837
   0.39048845  0.50185437  0.49199929
   0.44089482  0.50685370  0.49065887
   0.51254330  0.45994196  0.49837562
   0.53202835  0.45867738  0.45095388
   0.54461830  0.48855016  0.52716641
   0.57409714  0.56397622  0.53928488
   0.46411212  0.46881095  0.49939376
   0.53930303  0.53326972  0.52570403
   0.45867823  0.54343533  0.48247880
   0.57584997  0.46904264  0.54589139
Direct configuration=    31
   0.37554452  0.53495447  0.49583358
   0.37817538  0.48725064  0.46066469
   0.37945567  0.48036736  0.51958250
   0.44511669  0.44122596  0.50448719
   0.51592570  0.42661669  0.51316918
   0.56826731  0.45378590  0.45332951
   0.52563351  0.49004312  0.43319243
   0.51799227  0.43086894  0.43162959
   0.51210664  0.54498786  0.50814311
   0.59885102  0.54606350  0.55934490
   0.59094860  0.57796062  0.50971700
   0.56016040  0.59169200  0.55877784
   0.39049896  0.50185378  0.49200098
   0.44090154  0.50684391  0.49066141
   0.51254867  0.45993692  0.49838390
   0.53200633  0.45866878  0.45095100
   0.54463090  0.48855629  0.52715964
   0.57409191  0.56398179  0.53928599
   0.46411874  0.46881322  0.49943387
   0.53930611  0.53328008  0.52567549
   0.45869023  0.54342231  0.48243281
   0.57585866  0.46906854  0.54589714
Direct configuration=    32
   0.37555701  0.53495363  0.49583149
   0.37820643  0.48725834  0.46065575
   0.37945645  0.48036188  0.51957748
   0.44511861  0.44123575  0.50455383
   0.51594244  0.42661271  0.51318225
   0.56823878  0.45375465  0.45330258
   0.52561545  0.49003873  0.43319649
   0.51793822  0.43087474  0.43162120
   0.51211635  0.54499001  0.50809454
   0.59882231  0.54604396  0.55935052
   0.59095517  0.57798606  0.50973471
   0.56016336  0.59168922  0.55880051
   0.39051133  0.50185253  0.49200318
   0.44091341  0.50684076  0.49066276
   0.51255566  0.45993075  0.49839377
   0.53197904  0.45865774  0.45094788
   0.54464055  0.48857002  0.52714820
   0.57408547  0.56398907  0.53928634
   0.46412661  0.46881439  0.49948332
   0.53931163  0.53329021  0.52564180
   0.45870152  0.54339981  0.48237845
   0.57587430  0.46909718  0.54590659
Direct configuration=    33
   0.37557241  0.53495264  0.49582918
   0.37824384  0.48726759  0.46064519
   0.37945722  0.48035538  0.51957094
   0.44512171  0.44124785  0.50463652
   0.51596272  0.42660872  0.51319955
   0.56820336  0.45371500  0.45327012
   0.52559311  0.49003227  0.43320202
   0.51787117  0.43088037  0.43161310
   0.51212779  0.54499324  0.50803439
   0.59878913  0.54602088  0.55935474
   0.59096364  0.57801758  0.50975552
   0.56016626  0.59168553  0.55882663
   0.39052592  0.50185054  0.49200603
   0.44093081  0.50684339  0.49066309
   0.51256449  0.45992361  0.49840579
   0.53194524  0.45864362  0.45094421
   0.54464840  0.48859120  0.52713219
   0.57407793  0.56399837  0.53928586
   0.46413613  0.46881500  0.49954395
   0.53931959  0.53330078  0.52560156
   0.45871294  0.54336755  0.48231360
   0.57589669  0.46913031  0.54591931
Direct configuration=    34
   0.37559121  0.53495148  0.49582670
   0.37828883  0.48727867  0.46063265
   0.37945811  0.48034761  0.51956240
   0.44512599  0.44126241  0.50473956
   0.51598765  0.42660512  0.51322260
   0.56815927  0.45366458  0.45323092
   0.52556540  0.49002296  0.43320948
   0.51778770  0.43088525  0.43160610
   0.51214262  0.54499762  0.50796058
   0.59875109  0.54599393  0.55935617
   0.59097461  0.57805672  0.50977975
   0.56016842  0.59168056  0.55885641
   0.39054357  0.50184816  0.49200954
   0.44095114  0.50684347  0.49066417
   0.51257490  0.45991588  0.49842106
   0.53190371  0.45862573  0.45093978
   0.54466062  0.48861481  0.52711422
   0.57406983  0.56400987  0.53928484
   0.46414806  0.46881727  0.49961769
   0.53932862  0.53331492  0.52555210
   0.45872824  0.54333071  0.48223423
   0.57592150  0.46917271  0.54593229
Direct configuration=    35
   0.37561376  0.53495014  0.49582417
   0.37834216  0.48729172  0.46061785
   0.37945930  0.48033827  0.51955151
   0.44513164  0.44127966  0.50486688
   0.51601824  0.42660250  0.51325273
   0.56810500  0.45360123  0.45318385
   0.52553131  0.49001035  0.43321924
   0.51768464  0.43088877  0.43160114
   0.51216273  0.54500315  0.50787163
   0.59870836  0.54596297  0.55935352