  22  22   0   0
  0.1227273E+04  0.3000000E-08  0.3000000E-08  0.3000000E-08  0.0000000E+00
  1.000000000000000E-004
  CAR 
 unknown system                          
      2.19936290    -28.27337174  301     -4.50424194      1.00000000
    -28.273  0.0000E+00  0.0000E+00
    -28.172  0.0000E+00  0.0000E+00
    -28.070  0.0000E+00  0.0000E+00
    -27.969  0.0000E+00  0.0000E+00
    -27.867  0.0000E+00  0.0000E+00
    -27.765  0.0000E+00  0.0000E+00
    -27.664  0.0000E+00  0.0000E+00
    -27.562  0.0000E+00  0.0000E+00
    -27.461  0.0000E+00  0.0000E+00
    -27.359  0.5319E-15  0.5403E-16
    -27.258  0.1114E-12  0.1137E-13
    -27.156  0.1412E-10  0.1446E-11
    -27.054  0.1078E-08  0.1110E-09
    -26.953  0.4972E-07  0.5161E-08
    -26.851  0.1385E-05  0.1459E-06
    -26.750  0.2337E-04  0.2520E-05
    -26.648  0.2392E-03  0.2682E-04
    -26.547  0.1487E-02  0.1779E-03
    -26.445  0.5628E-02  0.7496E-03
    -26.343  0.1298E-01  0.2068E-02
    -26.242  0.1825E-01  0.3921E-02
    -26.140  0.1565E-01  0.5511E-02
    -26.039  0.8193E-02  0.6343E-02
    -25.937  0.2642E-02  0.6612E-02
    -25.836  0.7943E-03  0.6692E-02
    -25.734  0.1767E-02  0.6872E-02
    -25.632  0.6186E-02  0.7500E-02
    -25.531  0.1364E-01  0.8886E-02
    -25.429  0.1836E-01  0.1075E-01
    -25.328  0.1508E-01  0.1228E-01
    -25.226  0.7553E-02  0.1305E-01
    -25.125  0.2306E-02  0.1328E-01
    -25.023  0.4286E-03  0.1333E-01
    -24.921  0.4843E-04  0.1333E-01
    -24.820  0.3321E-05  0.1333E-01
    -24.718  0.1379E-06  0.1333E-01
    -24.617  0.3465E-08  0.1333E-01
    -24.515  0.5265E-10  0.1333E-01
    -24.413  0.1327E-10  0.1333E-01
    -24.312  0.9879E-09  0.1333E-01
    -24.210  0.4604E-07  0.1333E-01
    -24.109  0.1297E-05  0.1333E-01
    -24.007  0.2212E-04  0.1334E-01
    -23.906  0.2288E-03  0.1336E-01
    -23.804  0.1438E-02  0.1350E-01
    -23.702  0.5498E-02  0.1406E-01
    -23.601  0.1281E-01  0.1536E-01
    -23.499  0.1821E-01  0.1721E-01
    -23.398  0.1579E-01  0.1882E-01
    -23.296  0.8349E-02  0.1967E-01
    -23.195  0.2692E-02  0.1994E-01
    -23.093  0.5365E-03  0.1999E-01
    -22.991  0.1644E-03  0.2001E-01
    -22.890  0.7713E-03  0.2009E-01
    -22.788  0.3530E-02  0.2045E-01
    -22.687  0.9897E-02  0.2145E-01
    -22.585  0.1692E-01  0.2317E-01
    -22.484  0.1764E-01  0.2496E-01
    -22.382  0.1122E-01  0.2610E-01
    -22.280  0.4354E-02  0.2655E-01
    -22.179  0.1029E-02  0.2665E-01
    -22.077  0.1479E-03  0.2667E-01
    -21.976  0.1292E-04  0.2667E-01
    -21.874  0.6837E-06  0.2667E-01
    -21.773  0.2191E-07  0.2667E-01
    -21.671  0.4242E-09  0.2667E-01
    -21.569  0.4955E-11  0.2667E-01
    -21.468  0.3487E-13  0.2667E-01
    -21.366  0.1457E-15  0.2667E-01
    -21.265  0.0000E+00  0.2667E-01
    -21.163  0.0000E+00  0.2667E-01
    -21.061  0.0000E+00  0.2667E-01
    -20.960  0.0000E+00  0.2667E-01
    -20.858  0.0000E+00  0.2667E-01
    -20.757  0.2477E-15  0.2667E-01
    -20.655  0.5590E-13  0.2667E-01
    -20.554  0.7584E-11  0.2667E-01
    -20.452  0.6201E-09  0.2667E-01
    -20.350  0.3059E-07  0.2667E-01
    -20.249  0.9120E-06  0.2667E-01
    -20.147  0.1646E-04  0.2667E-01
    -20.046  0.1801E-03  0.2669E-01
    -19.944  0.1198E-02  0.2681E-01
    -19.843  0.4844E-02  0.2730E-01
    -19.741  0.1194E-01  0.2851E-01
    -19.639  0.1794E-01  0.3033E-01
    -19.538  0.1645E-01  0.3201E-01
    -19.436  0.9197E-02  0.3294E-01
    -19.335  0.3136E-02  0.3326E-01
    -19.233  0.6511E-03  0.3332E-01
    -19.132  0.8221E-04  0.3333E-01
    -19.030  0.6307E-05  0.3333E-01
    -18.928  0.5055E-06  0.3333E-01
    -18.827  0.4813E-05  0.3333E-01
    -18.725  0.6575E-04  0.3334E-01
    -18.624  0.5461E-03  0.3340E-01
    -18.522  0.2758E-02  0.3368E-01
    -18.421  0.8480E-02  0.3454E-01
    -18.319  0.1589E-01  0.3615E-01
    -18.217  0.1817E-01  0.3800E-01
    -18.116  0.1268E-01  0.3929E-01
    -18.014  0.5393E-02  0.3983E-01
    -17.913  0.1399E-02  0.3998E-01
    -17.811  0.2395E-03  0.4000E-01
    -17.709  0.2236E-03  0.4002E-01
    -17.608  0.1311E-02  0.4016E-01
    -17.506  0.5156E-02  0.4068E-01
    -17.405  0.1236E-01  0.4194E-01
    -17.303  0.1808E-01  0.4377E-01
    -17.202  0.1613E-01  0.4541E-01
    -17.100  0.8781E-02  0.4630E-01
    -16.998  0.2914E-02  0.4660E-01
    -16.897  0.5887E-03  0.4666E-01
    -16.795  0.7234E-04  0.4667E-01
    -16.694  0.6074E-05  0.4667E-01
    -16.592  0.1313E-04  0.4667E-01
    -16.491  0.1477E-03  0.4668E-01
    -16.389  0.1027E-02  0.4679E-01
    -16.287  0.4350E-02  0.4723E-01
    -16.186  0.1122E-01  0.4837E-01
    -16.084  0.1764E-01  0.5016E-01
    -15.983  0.1692E-01  0.5188E-01
    -15.881  0.9904E-02  0.5289E-01
    -15.780  0.3534E-02  0.5324E-01
    -15.678  0.7679E-03  0.5332E-01
    -15.576  0.1016E-03  0.5333E-01
    -15.475  0.1015E-04  0.5333E-01
    -15.373  0.3217E-04  0.5334E-01
    -15.272  0.3062E-03  0.5337E-01
    -15.170  0.1793E-02  0.5355E-01
    -15.069  0.6391E-02  0.5420E-01
    -14.967  0.1388E-01  0.5561E-01
    -14.865  0.1839E-01  0.5748E-01
    -14.764  0.1486E-01  0.5899E-01
    -14.662  0.7327E-02  0.5973E-01
    -14.561  0.2201E-02  0.5995E-01
    -14.459  0.4037E-03  0.6000E-01
    -14.357  0.6293E-04  0.6000E-01
    -14.256  0.1981E-03  0.6002E-01
    -14.154  0.1273E-02  0.6015E-01
    -14.053  0.5055E-02  0.6066E-01
    -13.951  0.1223E-01  0.6191E-01
    -13.850  0.1804E-01  0.6374E-01
    -13.748  0.1624E-01  0.6539E-01
    -13.646  0.8921E-02  0.6629E-01
    -13.545  0.3074E-02  0.6661E-01
    -13.443  0.1309E-02  0.6674E-01
    -13.342  0.3384E-02  0.6708E-01
    -13.240  0.9515E-02  0.6805E-01
    -13.139  0.1666E-01  0.6974E-01
    -13.037  0.1782E-01  0.7155E-01
    -12.935  0.1167E-01  0.7274E-01
    -12.834  0.5071E-02  0.7325E-01
    -12.732  0.3513E-02  0.7361E-01
    -12.631  0.7904E-02  0.7441E-01
    -12.529  0.1527E-01  0.7596E-01
    -12.428  0.1834E-01  0.7783E-01
    -12.326  0.1345E-01  0.7919E-01
    -12.224  0.6016E-02  0.7980E-01
    -12.123  0.1651E-02  0.7997E-01
    -12.021  0.4029E-03  0.8001E-01
    -11.920  0.9717E-03  0.8011E-01
    -11.818  0.4202E-02  0.8054E-01
    -11.717  0.1176E-01  0.8173E-01
    -11.615  0.2166E-01  0.8393E-01
    -11.513  0.2829E-01  0.8681E-01
    -11.412  0.2835E-01  0.8969E-01
    -11.310  0.2318E-01  0.9204E-01
    -11.209  0.1858E-01  0.9393E-01
    -11.107  0.1894E-01  0.9585E-01
    -11.005  0.1929E-01  0.9781E-01
    -10.904  0.1463E-01  0.9930E-01
    -10.802  0.1060E-01  0.1004E+00
    -10.701  0.1465E-01  0.1019E+00
    -10.599  0.2490E-01  0.1044E+00
    -10.498  0.3213E-01  0.1077E+00
    -10.396  0.3081E-01  0.1108E+00
    -10.294  0.2701E-01  0.1135E+00
    -10.193  0.3202E-01  0.1168E+00
    -10.091  0.4448E-01  0.1213E+00
     -9.990  0.4911E-01  0.1263E+00
     -9.888  0.3839E-01  0.1302E+00
     -9.787  0.2099E-01  0.1323E+00
     -9.685  0.8336E-02  0.1332E+00
     -9.583  0.4638E-02  0.1336E+00
     -9.482  0.8892E-02  0.1345E+00
     -9.380  0.1738E-01  0.1363E+00
     -9.279  0.2441E-01  0.1388E+00
     -9.177  0.2863E-01  0.1417E+00
     -9.076  0.3308E-01  0.1451E+00
     -8.974  0.3747E-01  0.1489E+00
     -8.872  0.3860E-01  0.1528E+00
     -8.771  0.3389E-01  0.1562E+00
     -8.669  0.2431E-01  0.1587E+00
     -8.568  0.1685E-01  0.1604E+00
     -8.466  0.1692E-01  0.1621E+00
     -8.365  0.1902E-01  0.1641E+00
     -8.263  0.1525E-01  0.1656E+00
     -8.161  0.7650E-02  0.1664E+00
     -8.060  0.2349E-02  0.1666E+00
     -7.958  0.4393E-03  0.1667E+00
     -7.857  0.4994E-04  0.1667E+00
     -7.755  0.3446E-05  0.1667E+00
     -7.653  0.1441E-06  0.1667E+00
     -7.552  0.3650E-08  0.1667E+00
     -7.450  0.7082E-09  0.1667E+00
     -7.349  0.3200E-07  0.1667E+00
     -7.247  0.9481E-06  0.1667E+00
     -7.146  0.1700E-04  0.1667E+00
     -7.044  0.1850E-03  0.1667E+00
     -6.942  0.1222E-02  0.1668E+00
     -6.841  0.4919E-02  0.1673E+00
     -6.739  0.1211E-01  0.1685E+00
     -6.638  0.1856E-01  0.1704E+00
     -6.536  0.1930E-01  0.1724E+00
     -6.435  0.1791E-01  0.1742E+00
     -6.333  0.1924E-01  0.1762E+00
     -6.231  0.1872E-01  0.1781E+00
     -6.130  0.1251E-01  0.1793E+00
     -6.028  0.5804E-02  0.1799E+00
     -5.927  0.4517E-02  0.1804E+00
     -5.825  0.9981E-02  0.1814E+00
     -5.724  0.1932E-01  0.1834E+00
     -5.622  0.2658E-01  0.1861E+00
     -5.520  0.2795E-01  0.1889E+00
     -5.419  0.2296E-01  0.1912E+00
     -5.317  0.1370E-01  0.1926E+00
     -5.216  0.5440E-02  0.1932E+00
     -5.114  0.1365E-02  0.1933E+00
     -5.013  0.2112E-03  0.1933E+00
     -4.911  0.1996E-04  0.1933E+00
     -4.809  0.1146E-05  0.1933E+00
     -4.708  0.3986E-07  0.1933E+00
     -4.606  0.8381E-09  0.1933E+00
     -4.505  0.1064E-10  0.1933E+00
     -4.403  0.8134E-13  0.1933E+00
     -4.301  0.3789E-15  0.1933E+00
     -4.200  0.0000E+00  0.1933E+00
     -4.098  0.0000E+00  0.1933E+00
     -3.997  0.0000E+00  0.1933E+00
     -3.895  0.0000E+00  0.1933E+00
     -3.794  0.0000E+00  0.1933E+00
     -3.692  0.0000E+00  0.1933E+00
     -3.590  0.0000E+00  0.1933E+00
     -3.489  0.0000E+00  0.1933E+00
     -3.387  0.0000E+00  0.1933E+00
     -3.286  0.0000E+00  0.1933E+00
     -3.184  0.0000E+00  0.1933E+00
     -3.083  0.0000E+00  0.1933E+00
     -2.981  0.0000E+00  0.1933E+00
     -2.879  0.0000E+00  0.1933E+00
     -2.778  0.0000E+00  0.1933E+00
     -2.676  0.0000E+00  0.1933E+00
     -2.575  0.0000E+00  0.1933E+00
     -2.473  0.0000E+00  0.1933E+00
     -2.372  0.0000E+00  0.1933E+00
     -2.270  0.2186E-16  0.1933E+00
     -2.168  0.5784E-14  0.1933E+00
     -2.067  0.9832E-12  0.1933E+00
     -1.965  0.1009E-09  0.1933E+00
     -1.864  0.6276E-08  0.1933E+00
     -1.762  0.2371E-06  0.1933E+00
     -1.661  0.5464E-05  0.1933E+00
     -1.559  0.7720E-04  0.1933E+00
     -1.457  0.6728E-03  0.1934E+00
     -1.356  0.3641E-02  0.1938E+00
     -1.254  0.1232E-01  0.1950E+00
     -1.153  0.2622E-01  0.1977E+00
     -1.051  0.3527E-01  0.2013E+00
     -0.949  0.3006E-01  0.2043E+00
     -0.848  0.1640E-01  0.2060E+00
     -0.746  0.6842E-02  0.2067E+00
     -0.645  0.6581E-02  0.2074E+00
     -0.543  0.1411E-01  0.2088E+00
     -0.442  0.2500E-01  0.2113E+00
     -0.340  0.3600E-01  0.2150E+00
     -0.238  0.4765E-01  0.2198E+00
     -0.137  0.6099E-01  0.2260E+00
     -0.035  0.7995E-01  0.2341E+00
      0.066  0.1051E+00  0.2448E+00
      0.168  0.1163E+00  0.2566E+00
      0.269  0.9306E-01  0.2661E+00
      0.371  0.4980E-01  0.2711E+00
      0.473  0.1722E-01  0.2729E+00
      0.574  0.3776E-02  0.2733E+00
      0.676  0.5195E-03  0.2733E+00
      0.777  0.4446E-04  0.2733E+00
      0.879  0.2352E-05  0.2733E+00
      0.980  0.7647E-07  0.2733E+00
      1.082  0.1522E-08  0.2733E+00
      1.184  0.1845E-10  0.2733E+00
      1.285  0.1359E-12  0.2733E+00
      1.387  0.6048E-15  0.2733E+00
      1.488  0.0000E+00  0.2733E+00
      1.590  0.0000E+00  0.2733E+00
      1.691  0.0000E+00  0.2733E+00
      1.793  0.0000E+00  0.2733E+00
      1.895  0.0000E+00  0.2733E+00
      1.996  0.0000E+00  0.2733E+00
      2.098  0.0000E+00  0.2733E+00
      2.199  0.0000E+00  0.2733E+00
