   22   22  300    1
  0.1227273E+04  0.3000000E-08  0.3000000E-08  0.3000000E-08  0.0000000E+00
  1.000000000000000E-004
  CAR 
 unknown system                          
     58      4     41
 
  0.2500000E+00  0.2500000E+00  0.2500000E+00  0.2500000E+00
    1      -26.273371   1.000000
    2      -25.469746   1.000000
    3      -23.528644   1.000000
    4      -22.576509   1.000000
    5      -19.657290   1.000000
    6      -18.291403   1.000000
    7      -17.326629   1.000000
    8      -16.092808   1.000000
    9      -14.909139   1.000000
   10      -13.871260   1.000000
   11      -13.124866   1.000000
   12      -12.491276   1.000000
   13      -11.617677   1.000000
   14      -11.418186   1.000000
   15      -11.068066   1.000000
   16      -10.603241   1.000000
   17      -10.450810   1.000000
   18      -10.118222   1.000000
   19      -10.079533   1.000000
   20       -9.949402   1.000000
   21       -9.350800   1.000000
   22       -9.108055   1.000000
   23       -8.941226   1.000000
   24       -8.788975   1.000000
   25       -8.403724   1.000000
   26       -6.656850   1.000000
   27       -6.309846   1.000000
   28       -5.705860   1.000000
   29       -5.495132   1.000000
   30       -1.126559   0.000000
   31       -1.046845   0.000000
   32       -0.465801   0.000000
   33       -0.255403   0.000000
   34       -0.185265   0.000000
   35       -0.044269   0.000000
   36        0.044146   0.000000
   37        0.105269   0.000000
   38        0.129799   0.000000
   39        0.132544   0.000000
   40        0.176168   0.000000
   41        0.199363   0.000000
 
 -0.2500000E+00  0.2500000E+00  0.2500000E+00  0.2500000E+00
    1      -26.273371   1.000000
    2      -25.469745   1.000000
    3      -23.528644   1.000000
    4      -22.576510   1.000000
    5      -19.657288   1.000000
    6      -18.291401   1.000000
    7      -17.326628   1.000000
    8      -16.092810   1.000000
    9      -14.909139   1.000000
   10      -13.871267   1.000000
   11      -13.124863   1.000000
   12      -12.491273   1.000000
   13      -11.617678   1.000000
   14      -11.418177   1.000000
   15      -11.068079   1.000000
   16      -10.603243   1.000000
   17      -10.450811   1.000000
   18      -10.118230   1.000000
   19      -10.079533   1.000000
   20       -9.949405   1.000000
   21       -9.350789   1.000000
   22       -9.108056   1.000000
   23       -8.941213   1.000000
   24       -8.788967   1.000000
   25       -8.403722   1.000000
   26       -6.656845   1.000000
   27       -6.309848   1.000000
   28       -5.705873   1.000000
   29       -5.495131   1.000000
   30       -1.126568   0.000000
   31       -1.046844   0.000000
   32       -0.465791   0.000000
   33       -0.255403   0.000000
   34       -0.185221   0.000000
   35       -0.044508   0.000000
   36        0.044903   0.000000
   37        0.101012   0.000000
   38        0.126561   0.000000
   39        0.139617   0.000000
   40        0.186445   0.000000
   41        0.191708   0.000000
 
  0.2500000E+00 -0.2500000E+00  0.2500000E+00  0.2500000E+00
    1      -26.273372   1.000000
    2      -25.469745   1.000000
    3      -23.528645   1.000000
    4      -22.576509   1.000000
    5      -19.657291   1.000000
    6      -18.291401   1.000000
    7      -17.326630   1.000000
    8      -16.092811   1.000000
    9      -14.909133   1.000000
   10      -13.871268   1.000000
   11      -13.124865   1.000000
   12      -12.491271   1.000000
   13      -11.617676   1.000000
   14      -11.418186   1.000000
   15      -11.068072   1.000000
   16      -10.603234   1.000000
   17      -10.450818   1.000000
   18      -10.118219   1.000000
   19      -10.079539   1.000000
   20       -9.949403   1.000000
   21       -9.350791   1.000000
   22       -9.108067   1.000000
   23       -8.941221   1.000000
   24       -8.788966   1.000000
   25       -8.403722   1.000000
   26       -6.656835   1.000000
   27       -6.309849   1.000000
   28       -5.705871   1.000000
   29       -5.495131   1.000000
   30       -1.126570   0.000000
   31       -1.046843   0.000000
   32       -0.465777   0.000000
   33       -0.255419   0.000000
   34       -0.185236   0.000000
   35       -0.042980   0.000000
   36        0.037041   0.000000
   37        0.111327   0.000000
   38        0.124689   0.000000
   39        0.142137   0.000000
   40        0.183946   0.000000
   41        0.193363   0.000000
 
 -0.2500000E+00 -0.2500000E+00  0.2500000E+00  0.2500000E+00
    1      -26.273370   1.000000
    2      -25.469745   1.000000
    3      -23.528646   1.000000
    4      -22.576508   1.000000
    5      -19.657288   1.000000
    6      -18.291402   1.000000
    7      -17.326630   1.000000
    8      -16.092811   1.000000
    9      -14.909133   1.000000
   10      -13.871263   1.000000
   11      -13.124864   1.000000
   12      -12.491279   1.000000
   13      -11.617674   1.000000
   14      -11.418177   1.000000
   15      -11.068067   1.000000
   16      -10.603232   1.000000
   17      -10.450813   1.000000
   18      -10.118238   1.000000
   19      -10.079538   1.000000
   20       -9.949401   1.000000
   21       -9.350802   1.000000
   22       -9.108067   1.000000
   23       -8.941215   1.000000
   24       -8.788962   1.000000
   25       -8.403729   1.000000
   26       -6.656846   1.000000
   27       -6.309846   1.000000
   28       -5.705862   1.000000
   29       -5.495139   1.000000
   30       -1.126563   0.000000
   31       -1.046842   0.000000
   32       -0.465786   0.000000
   33       -0.255419   0.000000
   34       -0.185241   0.000000
   35       -0.043066   0.000000
   36        0.037380   0.000000
   37        0.114569   0.000000
   38        0.127768   0.000000
   39        0.138013   0.000000
   40        0.172536   0.000000
   41        0.189694   0.000000
