 vasp.5.4.1 24Jun15 (build Jan 13 2020 12:58:22) complex                        
  
 executed on           IFC91_ompi date 2020.02.03  09:59:13
 running on   15 total cores
 each image running on    1 cores
 distrk:  each k-point on    1 cores,    1 groups
 distr:  one band on NCORES_PER_BAND=   1 cores,    1 groups


--------------------------------------------------------------------------------------------------------


 INCAR:
 POTCAR:    PAW_PBE H 15Jun2001                   
 POTCAR:    PAW_PBE C 08Apr2002                   
 POTCAR:    PAW_PBE N 08Apr2002                   
 POTCAR:    PAW_PBE O 08Apr2002                   
 POTCAR:    PAW_PBE H 15Jun2001                   
   VRHFIN =H: ultrasoft test                                                    
   LEXCH  = PE                                                                  
   EATOM  =    12.4884 eV,    0.9179 Ry                                         
                                                                                
   TITEL  = PAW_PBE H 15Jun2001                                                 
   LULTRA =        F    use ultrasoft PP ?                                      
   IUNSCR =        0    unscreen: 0-lin 1-nonlin 2-no                           
   RPACOR =    0.000    partial core radius                                     
   POMASS =    1.000; ZVAL   =    1.000    mass and valenz                      
   RCORE  =    1.100    outmost cutoff radius                                   
   RWIGS  =    0.700; RWIGS  =    0.370    wigner-seitz radius (au A)           
   ENMAX  =  250.000; ENMIN  =  200.000 eV                                      
   RCLOC  =    0.701    cutoff for local pot                                    
   LCOR   =        T    correct aug charges                                     
   LPAW   =        T    paw PP                                                  
   EAUG   =  400.000                                                            
   RMAX   =    1.123    core radius for proj-oper                               
   RAUG   =    1.200    factor for augmentation sphere                          
   RDEP   =    1.112    radius for radial grids                                 
   RDEPT  =    0.926    core radius for aug-charge                              
                                                                                
   Atomic configuration                                                         
    2 entries                                                                   
     n  l   j            E        occ.                                          
     1  0  0.50        -6.4927   1.0000                                         
     2  1  0.50        -3.4015   0.0000                                         
   Description                                                                  
     l       E           TYP  RCUT    TYP  RCUT                                 
     0     -6.4927494     23  1.100                                             
     0      6.8029130     23  1.100                                             
     1     -4.0817478     23  1.100                                             
  local pseudopotential read in
  atomic valenz-charges read in
  non local Contribution for L=           0  read in
    real space projection operators read in
  non local Contribution for L=           0  read in
    real space projection operators read in
  non local Contribution for L=           1  read in
    real space projection operators read in
    PAW grid and wavefunctions read in
 
   number of l-projection  operators is LMAX  =           3
   number of lm-projection operators is LMMAX =           5
 
 POTCAR:    PAW_PBE C 08Apr2002                   
   VRHFIN =C: s2p2                                                              
   LEXCH  = PE                                                                  
   EATOM  =   147.1560 eV,   10.8157 Ry                                         
                                                                                
   TITEL  = PAW_PBE C 08Apr2002                                                 
   LULTRA =        F    use ultrasoft PP ?                                      
   IUNSCR =        1    unscreen: 0-lin 1-nonlin 2-no                           
   RPACOR =    1.200    partial core radius                                     
   POMASS =   12.011; ZVAL   =    4.000    mass and valenz                      
   RCORE  =    1.500    outmost cutoff radius                                   
   RWIGS  =    1.630; RWIGS  =    0.863    wigner-seitz radius (au A)           
   ENMAX  =  400.000; ENMIN  =  300.000 eV                                      
   ICORE  =        2    local potential                                         
   LCOR   =        T    correct aug charges                                     
   LPAW   =        T    paw PP                                                  
   EAUG   =  644.873                                                            
   DEXC   =    0.000                                                            
   RMAX   =    1.529    core radius for proj-oper                               
   RAUG   =    1.300    factor for augmentation sphere                          
   RDEP   =    1.501    radius for radial grids                                 
   RDEPT  =    1.300    core radius for aug-charge                              
                                                                                
   Atomic configuration                                                         
    4 entries                                                                   
     n  l   j            E        occ.                                          
     1  0  0.50      -273.3789   2.0000                                         
     2  0  0.50       -13.7508   2.0000                                         
     2  1  0.50        -5.2854   2.0000                                         
     3  2  1.50        -5.4423   0.0000                                         
   Description                                                                  
     l       E           TYP  RCUT    TYP  RCUT                                 
     0    -13.7508458     23  1.200                                             
     0     -8.2022199     23  1.200                                             
     1     -5.2854383     23  1.500                                             
     1     34.0145650     23  1.500                                             
     2     -5.4423304      7  1.500                                             
  local pseudopotential read in
  partial core-charges read in
  partial kinetic energy density read in
  atomic valenz-charges read in
  non local Contribution for L=           0  read in
    real space projection operators read in
  non local Contribution for L=           0  read in
    real space projection operators read in
  non local Contribution for L=           1  read in
    real space projection operators read in
  non local Contribution for L=           1  read in
    real space projection operators read in
    PAW grid and wavefunctions read in
 
   number of l-projection  operators is LMAX  =           4
   number of lm-projection operators is LMMAX =           8
 
 POTCAR:    PAW_PBE N 08Apr2002                   
   VRHFIN =N: s2p3                                                              
   LEXCH  = PE                                                                  
   EATOM  =   264.5486 eV,   19.4438 Ry                                         
                                                                                
   TITEL  = PAW_PBE N 08Apr2002                                                 
   LULTRA =        F    use ultrasoft PP ?                                      
   IUNSCR =        1    unscreen: 0-lin 1-nonlin 2-no                           
   RPACOR =    1.200    partial core radius                                     
   POMASS =   14.001; ZVAL   =    5.000    mass and valenz                      
   RCORE  =    1.500    outmost cutoff radius                                   
   RWIGS  =    1.400; RWIGS  =    0.741    wigner-seitz radius (au A)           
   ENMAX  =  400.000; ENMIN  =  300.000 eV                                      
   ICORE  =        2    local potential                                         
   LCOR   =        T    correct aug charges                                     
   LPAW   =        T    paw PP                                                  
   EAUG   =  627.112                                                            
   DEXC   =    0.000                                                            
   RMAX   =    1.529    core radius for proj-oper                               
   RAUG   =    1.300    factor for augmentation sphere                          
   RDEP   =    1.514    radius for radial grids                                 
   RDEPT  =    1.338    core radius for aug-charge                              
                                                                                
   Atomic configuration                                                         
    4 entries                                                                   
     n  l   j            E        occ.                                          
     1  0  0.50      -384.7179   2.0000                                         
     2  0  0.50       -18.5828   2.0000                                         
     2  1  0.50        -7.0898   3.0000                                         
     3  2  1.50        -6.8029   0.0000                                         
   Description                                                                  
     l       E           TYP  RCUT    TYP  RCUT                                 
     0    -18.5828119     23  1.200                                             
     0    -13.5018863     23  1.200                                             
     1     -7.0897853     23  1.500                                             
     1      9.5240782     23  1.500                                             
     2     -6.8029130      7  1.500                                             
  local pseudopotential read in
  partial core-charges read in
  partial kinetic energy density read in
  atomic valenz-charges read in
  non local Contribution for L=           0  read in
    real space projection operators read in
  non local Contribution for L=           0  read in
    real space projection operators read in
  non local Contribution for L=           1  read in
    real space projection operators read in
  non local Contribution for L=           1  read in
    real space projection operators read in
    PAW grid and wavefunctions read in
 
   number of l-projection  operators is LMAX  =           4
   number of lm-projection operators is LMMAX =           8
 
 POTCAR:    PAW_PBE O 08Apr2002                   
   VRHFIN =O: s2p4                                                              
   LEXCH  = PE                                                                  
   EATOM  =   432.3788 eV,   31.7789 Ry                                         
                                                                                
   TITEL  = PAW_PBE O 08Apr2002                                                 
   LULTRA =        F    use ultrasoft PP ?                                      
   IUNSCR =        1    unscreen: 0-lin 1-nonlin 2-no                           
   RPACOR =    1.200    partial core radius                                     
   POMASS =   16.000; ZVAL   =    6.000    mass and valenz                      
   RCORE  =    1.520    outmost cutoff radius                                   
   RWIGS  =    1.550; RWIGS  =    0.820    wigner-seitz radius (au A)           
   ENMAX  =  400.000; ENMIN  =  300.000 eV                                      
   ICORE  =        2    local potential                                         
   LCOR   =        T    correct aug charges                                     
   LPAW   =        T    paw PP                                                  
   EAUG   =  605.392                                                            
   DEXC   =    0.000                                                            
   RMAX   =    1.553    core radius for proj-oper                               
   RAUG   =    1.300    factor for augmentation sphere                          
   RDEP   =    1.550    radius for radial grids                                 
   RDEPT  =    1.329    core radius for aug-charge                              
                                                                                
   Atomic configuration                                                         
    4 entries                                                                   
     n  l   j            E        occ.                                          
     1  0  0.50      -514.6923   2.0000                                         
     2  0  0.50       -23.9615   2.0000                                         
     2  1  0.50        -9.0305   4.0000                                         
     3  2  1.50        -9.5241   0.0000                                         
   Description                                                                  
     l       E           TYP  RCUT    TYP  RCUT                                 
     0    -23.9615318     23  1.200                                             
     0     -9.5240782     23  1.200                                             
     1     -9.0304911     23  1.520                                             
     1      8.1634956     23  1.520                                             
     2     -9.5240782      7  1.500                                             
  local pseudopotential read in
  partial core-charges read in
  partial kinetic energy density read in
  kinetic energy density of atom read in
  atomic valenz-charges read in
  non local Contribution for L=           0  read in
    real space projection operators read in
  non local Contribution for L=           0  read in
    real space projection operators read in
  non local Contribution for L=           1  read in
    real space projection operators read in
  non local Contribution for L=           1  read in
    real space projection operators read in
    PAW grid and wavefunctions read in
 
   number of l-projection  operators is LMAX  =           4
   number of lm-projection operators is LMMAX =           8
 
 Optimization of the real space projectors (new method)

 maximal supplied QI-value         = 34.20
 optimisation between [QCUT,QGAM] = [  9.92, 20.18] = [ 27.55,114.04] Ry 
 Optimized for a Real-space Cutoff    1.26 Angstroem

   l    n(q)    QCUT    max X(q) W(low)/X(q) W(high)/X(q)  e(spline) 
   0      8     9.919    19.460    0.50E-03    0.23E-03    0.29E-06
   0      8     9.919    12.209    0.48E-03    0.23E-03    0.28E-06
   1      7     9.919     4.655    0.17E-03    0.75E-03    0.30E-06
 Optimization of the real space projectors (new method)

 maximal supplied QI-value         = 25.13
 optimisation between [QCUT,QGAM] = [ 10.05, 20.36] = [ 28.30,116.06] Ry 
 Optimized for a Real-space Cutoff    1.30 Angstroem

   l    n(q)    QCUT    max X(q) W(low)/X(q) W(high)/X(q)  e(spline) 
   0      8    10.053   115.676    0.49E-03    0.72E-03    0.18E-06
   0      8    10.053    87.132    0.49E-03    0.71E-03    0.18E-06
   1      7    10.053     4.429    0.32E-03    0.31E-03    0.18E-06
   1      7    10.053     2.733    0.23E-03    0.19E-03    0.20E-06
 Optimization of the real space projectors (new method)

 maximal supplied QI-value         = 25.13
 optimisation between [QCUT,QGAM] = [ 10.05, 20.36] = [ 28.30,116.06] Ry 
 Optimized for a Real-space Cutoff    1.65 Angstroem

   l    n(q)    QCUT    max X(q) W(low)/X(q) W(high)/X(q)  e(spline) 
   0     10    10.053    79.467    0.76E-04    0.72E-04    0.56E-06
   0     10    10.053    66.151    0.76E-04    0.72E-04    0.55E-06
   1     10    10.053     8.350    0.25E-03    0.92E-03    0.41E-05
   1     10    10.053     5.531    0.27E-03    0.10E-02    0.45E-05
 Optimization of the real space projectors (new method)

 maximal supplied QI-value         = 24.76
 optimisation between [QCUT,QGAM] = [ 10.15, 20.30] = [ 28.85,115.39] Ry 
 Optimized for a Real-space Cutoff    1.38 Angstroem

   l    n(q)    QCUT    max X(q) W(low)/X(q) W(high)/X(q)  e(spline) 
   0      8    10.150    20.381    0.22E-03    0.32E-03    0.29E-06
   0      8    10.150    15.268    0.23E-03    0.35E-03    0.30E-06
   1      8    10.150     5.964    0.46E-03    0.53E-03    0.21E-06
   1      8    10.150     5.382    0.38E-03    0.45E-03    0.19E-06
  PAW_PBE H 15Jun2001                   :
 energy of atom  1       EATOM=  -12.4884
 kinetic energy error for atom=    0.0098 (will be added to EATOM!!)
  PAW_PBE C 08Apr2002                   :
 energy of atom  2       EATOM= -147.1560
 kinetic energy error for atom=    0.0288 (will be added to EATOM!!)
  PAW_PBE N 08Apr2002                   :
 energy of atom  3       EATOM= -264.5486
 kinetic energy error for atom=    0.0736 (will be added to EATOM!!)
  PAW_PBE O 08Apr2002                   :
 energy of atom  4       EATOM= -432.3788
 kinetic energy error for atom=    0.1156 (will be added to EATOM!!)
 
 
 POSCAR: H12 C6 N2 O2                            
  positions in direct lattice
  velocities in cartesian coordinates
 exchange correlation table for  LEXCH =        8
   RHO(1)=    0.500       N(1)  =     2000
   RHO(2)=  100.500       N(2)  =     4000

 VTST: version 3.2, (02/03/18)

 CHAIN: initializing optimizer
 
 OPT: Using FIRE optimizer
 OPT: FIRE, Init
 OPT: FIRE, MAXMOVE       0.20000
 OPT: FIRE, TIMESTEP      0.10000
 OPT: FIRE, FTIMEMAX      1.00000
 OPT: FIRE, FTIMEINC      1.10000
 OPT: FIRE, FTIMEDEC      0.50000
 OPT: FIRE, FALPHADEC     0.99000
 OPT: FIRE, FALPHA        0.10000
 OPT: FIRE, FNMIN         5
 
 CHAIN: Read ICHAIN            0
 CHAIN: Running the NEB
 NEB:          SPRING     -5.000000
 NEB:          LCLIMB      T
 NEB:     LTANGENTOLD      F
 NEB:           LDNEB      F
 NEB:        LDNEBORG      F
 NEB:        LNEBCELL      F
 NEB:          EFIRST      0.000000
 NEB:           ELAST      0.000000
 
 POSCAR: H12 C6 N2 O2                            
  positions in direct lattice
  No initial velocities read in
 
 POSCAR: H12 C6 N2 O2                            
  positions in direct lattice
  No initial velocities read in
 


--------------------------------------------------------------------------------------------------------


 ion  position               nearest neighbor table
   1  0.374  0.536  0.497-  13 1.09
   2  0.381  0.488  0.464-  13 1.10
   3  0.380  0.483  0.522-  13 1.10
   4  0.445  0.446  0.494-  19 1.02
   5  0.510  0.433  0.532-  15 1.11
   6  0.567  0.441  0.466-  16 1.09
   7  0.523  0.469  0.437-  16 1.10
   8  0.517  0.412  0.453-  16 1.10
   9  0.508  0.548  0.511-  20 1.04
  10  0.606  0.547  0.530-  18 1.09
  11  0.582  0.577  0.485-  18 1.10
  12  0.574  0.598  0.540-  18 1.10
  13  0.390  0.504  0.495-   1 1.09   3 1.10   2 1.10  14 1.51
  14  0.440  0.512  0.497-  21 1.24  19 1.36  13 1.51
  15  0.511  0.461  0.507-   5 1.11  19 1.48  16 1.54  17 1.55
  16  0.531  0.444  0.463-   6 1.09   7 1.10   8 1.10  15 1.54
  17  0.546  0.494  0.526-  22 1.24  20 1.35  15 1.55
  18  0.577  0.567  0.520-  10 1.09  12 1.10  11 1.10  20 1.45
  19  0.464  0.473  0.502-   4 1.02  14 1.36  15 1.48
  20  0.539  0.538  0.522-   9 1.04  17 1.35  18 1.45
  21  0.456  0.550  0.497-  14 1.24
  22  0.581  0.477  0.539-  17 1.24
 
  LATTYP: Found a simple cubic cell.
 ALAT       =    30.0000000000
  
  Lattice vectors:
  
 A1 = (  30.0000000000,   0.0000000000,   0.0000000000)
 A2 = (   0.0000000000,  30.0000000000,   0.0000000000)
 A3 = (   0.0000000000,   0.0000000000,  30.0000000000)


Analysis of symmetry for initial positions (statically):
=====================================================================
 Subroutine PRICEL returns:
 Original cell was already a primitive cell.
 

 Routine SETGRP: Setting up the symmetry group for a 
 simple cubic supercell.


 Subroutine GETGRP returns: Found  1 space group operations
 (whereof  1 operations were pure point group operations)
 out of a pool of 48 trial point group operations.


The static configuration has the point symmetry C_1 .


Analysis of symmetry for dynamics (positions and initial velocities):
=====================================================================
 Subroutine PRICEL returns:
 Original cell was already a primitive cell.
 

 Routine SETGRP: Setting up the symmetry group for a 
 simple cubic supercell.


 Subroutine GETGRP returns: Found  1 space group operations
 (whereof  1 operations were pure point group operations)
 out of a pool of 48 trial point group operations.


The dynamic configuration has the point symmetry C_1 .
 
 
 KPOINTS: Mo2C                                    

Automatic generation of k-mesh.
Space group operators:
 irot       det(A)        alpha          n_x          n_y          n_z        tau_x        tau_y        tau_z
    1     1.000000     0.000000     1.000000     0.000000     0.000000     0.000000     0.000000     0.000000
 
 Subroutine IBZKPT returns following result:
 ===========================================
 
 Found      4 irreducible k-points:
 
 Following reciprocal coordinates:
            Coordinates               Weight
  0.250000  0.250000  0.250000      2.000000
 -0.250000  0.250000  0.250000      2.000000
  0.250000 -0.250000  0.250000      2.000000
 -0.250000 -0.250000  0.250000      2.000000
 
 Following cartesian coordinates:
            Coordinates               Weight
  0.008333  0.008333  0.008333      2.000000
 -0.008333  0.008333  0.008333      2.000000
  0.008333 -0.008333  0.008333      2.000000
 -0.008333 -0.008333  0.008333      2.000000
 


--------------------------------------------------------------------------------------------------------




 Dimension of arrays:
   k-points           NKPTS =      4   k-points in BZ     NKDIM =      4   number of bands    NBANDS=     41
   number of dos      NEDOS =    301   number of ions     NIONS =     22
   non local maximal  LDIM  =      4   non local SUM 2l+1 LMDIM =      8
   total plane-waves  NPLWV = ******
   max r-space proj   IRMAX =   2395   max aug-charges    IRDMAX=   1821
   dimension x,y,z NGX =   150 NGY =  150 NGZ =  150
   dimension x,y,z NGXF=   300 NGYF=  300 NGZF=  300
   support grid    NGXF=   300 NGYF=  300 NGZF=  300
   ions per type =              12   6   2   2
 NGX,Y,Z   is equivalent  to a cutoff of   8.31,  8.31,  8.31 a.u.
 NGXF,Y,Z  is equivalent  to a cutoff of  16.62, 16.62, 16.62 a.u.


 I would recommend the setting:
   dimension x,y,z NGX =   147 NGY =  147 NGZ =  147
 SYSTEM =  unknown system                          
 POSCAR =  H12 C6 N2 O2                            

 Startparameter for this run:
   NWRITE =      2    write-flag & timer
   PREC   = normal    normal or accurate (medium, high low for compatibility)
   ISTART =      0    job   : 0-new  1-cont  2-samecut
   ICHARG =      2    charge: 1-file 2-atom 10-const
   ISPIN  =      1    spin polarized calculation?
   LNONCOLLINEAR =      F non collinear calculations
   LSORBIT =      F    spin-orbit coupling
   INIWAV =      1    electr: 0-lowe 1-rand  2-diag
   LASPH  =      F    aspherical Exc in radial PAW
   METAGGA=      F    non-selfconsistent MetaGGA calc.

 Electronic Relaxation 1
   ENCUT  =  400.0 eV  29.40 Ry    5.42 a.u.  48.92 48.92 48.92*2*pi/ulx,y,z
   ENINI  =  400.0     initial cutoff
   ENAUG  =  644.9 eV  augmentation charge cutoff
   NELM   =    500;   NELMIN=  6; NELMDL= -5     # of ELM steps 
   EDIFF  = 0.1E-03   stopping-criterion for ELM
   LREAL  =      T    real-space projection
   NLSPLINE    = F    spline interpolate recip. space projectors
   LCOMPAT=      F    compatible to vasp.4.4
   GGA_COMPAT  = T    GGA compatible to vasp.4.4-vasp.4.6
   LMAXPAW     = -100 max onsite density
   LMAXMIX     =    2 max onsite mixed and CHGCAR
   VOSKOWN=      0    Vosko Wilk Nusair interpolation
   ROPT   =   -0.00050  -0.00050  -0.00050  -0.00050
 Ionic relaxation
   EDIFFG = -.1E+00   stopping-criterion for IOM
   NSW    =    300    number of steps for IOM
   NBLOCK =      1;   KBLOCK =    300    inner block; outer block 
   IBRION =      3    ionic relax: 0-MD 1-quasi-New 2-CG
   NFREE  =      0    steps in history (QN), initial steepest desc. (CG)
   ISIF   =      2    stress and relaxation
   IWAVPR =     11    prediction:  0-non 1-charg 2-wave 3-comb
   ISYM   =      2    0-nonsym 1-usesym 2-fastsym
   LCORR  =      T    Harris-Foulkes like correction to forces

   POTIM  = 0.0000    time-step for ionic-motion
   TEIN   =    0.0    initial temperature
   TEBEG  =    0.0;   TEEND  =   0.0 temperature during run
   SMASS  =   2.00    Nose mass-parameter (am)
   estimated Nose-frequenzy (Omega)   =  0.24E+10 period in steps =  0.00 mass=   0.137E-25a.u.
   SCALEE = 1.0000    scale energy and forces
   NPACO  =    256;   APACO  = 16.0  distance and # of slots for P.C.
   PSTRESS=    0.0 pullay stress

  Mass of Ions in am
   POMASS =   1.00 12.01 14.00 16.00
  Ionic Valenz
   ZVAL   =   1.00  4.00  5.00  6.00
  Atomic Wigner-Seitz radii
   RWIGS  =  -1.00 -1.00 -1.00 -1.00
  virtual crystal weights 
   VCA    =   1.00  1.00  1.00  1.00
   NELECT =      58.0000    total number of electrons
   NUPDOWN=      -1.0000    fix difference up-down

 DOS related values:
   EMIN   =  10.00;   EMAX   =-10.00  energy-range for DOS
   EFERMI =   0.00
   ISMEAR =     0;   SIGMA  =   0.20  broadening in eV -4-tet -1-fermi 0-gaus

 Electronic relaxation 2 (details)
   IALGO  =     38    algorithm
   LDIAG  =      T    sub-space diagonalisation (order eigenvalues)
   LSUBROT=      F    optimize rotation matrix (better conditioning)
   TURBO    =      0    0=normal 1=particle mesh
   IRESTART =      0    0=no restart 2=restart with 2 vectors
   NREBOOT  =      0    no. of reboots
   NMIN     =      0    reboot dimension
   EREF     =   0.00    reference energy to select bands
   IMIX   =      4    mixing-type and parameters
     AMIX     =   0.40;   BMIX     =  1.00
     AMIX_MAG =   1.60;   BMIX_MAG =  1.00
     AMIN     =   0.10
     WC   =   100.;   INIMIX=   1;  MIXPRE=   1;  MAXMIX= -45

 Intra band minimization:
   WEIMIN = 0.0010     energy-eigenvalue tresh-hold
   EBREAK =  0.61E-06  absolut break condition
   DEPER  =   0.30     relativ break condition  

   TIME   =   0.40     timestep for ELM

  volume/ion in A,a.u.               =    1227.27      8282.05
  Fermi-wavevector in a.u.,A,eV,Ry     =   0.211234  0.399174  0.607087  0.044620
  Thomas-Fermi vector in A             =   0.980021
 
 Write flags
   LWAVE  =      F    write WAVECAR
   LCHARG =      F    write CHGCAR
   LVTOT  =      F    write LOCPOT, total local potential
   LVHAR  =      F    write LOCPOT, Hartree potential only
   LELF   =      F    write electronic localiz. function (ELF)
   LORBIT =      0    0 simple, 1 ext, 2 COOP (PROOUT)


 Dipole corrections
   LMONO  =      F    monopole corrections only (constant potential shift)
   LDIPOL =      F    correct potential (dipole corrections)
   IDIPOL =      0    1-x, 2-y, 3-z, 4-all directions 
   EPSILON=  1.0000000 bulk dielectric constant

 Exchange correlation treatment:
   GGA     =    PE    GGA type
   LEXCH   =     8    internal setting for exchange type
   VOSKOWN=      0    Vosko Wilk Nusair interpolation
   LHFCALC =     F    Hartree Fock is set to
   LHFONE  =     F    Hartree Fock one center treatment
   AEXX    =    0.0000 exact exchange contribution

 Linear response parameters
   LEPSILON=     F    determine dielectric tensor
   LRPA    =     F    only Hartree local field effects (RPA)
   LNABLA  =     F    use nabla operator in PAW spheres
   LVEL    =     F    velocity operator in full k-point grid
   LINTERFAST=   F  fast interpolation
   KINTER  =     0    interpolate to denser k-point grid
   CSHIFT  =0.1000    complex shift for real part using Kramers Kronig
   OMEGAMAX=  -1.0    maximum frequency
   DEG_THRESHOLD= 0.2000000E-02 threshold for treating states as degnerate
   RTIME   =    0.100 relaxation time in fs

 Orbital magnetization related:
   ORBITALMAG=     F  switch on orbital magnetization
   LCHIMAG   =     F  perturbation theory with respect to B field
   DQ        =  0.001000  dq finite difference perturbation B field



--------------------------------------------------------------------------------------------------------


 quickmin algorithm: (dynamic with friction)
 charge density and potential will be updated during run
 non-spin polarized calculation
 Variant of blocked Davidson
 Davidson routine will perform the subspace rotation
 perform sub-space diagonalisation
    after iterative eigenvector-optimisation
 modified Broyden-mixing scheme, WC =      100.0
 initial mixing is a Kerker type mixing with AMIX =  0.4000 and BMIX =      1.0000
 Hartree-type preconditioning will be used
 using additional bands           12
 real space projection scheme for non local part
 use partial core corrections
 calculate Harris-corrections to forces 
   (improved forces if not selfconsistent)
 use gradient corrections 
 use of overlap-Matrix (Vanderbilt PP)
 Gauss-broadening in eV      SIGMA  =   0.20


--------------------------------------------------------------------------------------------------------


  energy-cutoff  :      400.00
  volume of cell :    27000.00
      direct lattice vectors                 reciprocal lattice vectors
    30.000000000  0.000000000  0.000000000     0.033333333  0.000000000  0.000000000
     0.000000000 30.000000000  0.000000000     0.000000000  0.033333333  0.000000000
     0.000000000  0.000000000 30.000000000     0.000000000  0.000000000  0.033333333

  length of vectors
    30.000000000 30.000000000 30.000000000     0.033333333  0.033333333  0.033333333


 
 k-points in units of 2pi/SCALE and weight: Mo2C                                    
   0.00833333  0.00833333  0.00833333       0.250
  -0.00833333  0.00833333  0.00833333       0.250
   0.00833333 -0.00833333  0.00833333       0.250
  -0.00833333 -0.00833333  0.00833333       0.250
 
 k-points in reciprocal lattice and weights: Mo2C                                    
   0.25000000  0.25000000  0.25000000       0.250
  -0.25000000  0.25000000  0.25000000       0.250
   0.25000000 -0.25000000  0.25000000       0.250
  -0.25000000 -0.25000000  0.25000000       0.250
 
 position of ions in fractional coordinates (direct lattice) 
   0.37355933  0.53648509  0.49743571
   0.38081514  0.48807749  0.46351396
   0.37975115  0.48291480  0.52247644
   0.44476252  0.44613253  0.49435013
   0.51031702  0.43284013  0.53186027
   0.56676267  0.44090485  0.46632309
   0.52338741  0.46898001  0.43695287
   0.51705819  0.41178076  0.45274016
   0.50764344  0.54803872  0.51074379
   0.60597530  0.54744926  0.53007818
   0.58245790  0.57747892  0.48459290
   0.57422457  0.59762319  0.53961348
   0.39029270  0.50438366  0.49487485
   0.44006784  0.51196447  0.49736787
   0.51098734  0.46065752  0.50748261
   0.53056940  0.44432656  0.46307697
   0.54589373  0.49383642  0.52640325
   0.57729742  0.56723469  0.51950967
   0.46356347  0.47331413  0.50190700
   0.53886862  0.53805939  0.52238633
   0.45569793  0.55035988  0.49675250
   0.58133672  0.47663018  0.53910054
 
 position of ions in cartesian coordinates  (Angst):
  11.20677989 16.09455264 14.92307137
  11.42445409 14.64232485 13.90541880
  11.39253447 14.48744402 15.67429306
  13.34287573 13.38397604 14.83050375
  15.30951056 12.98520397 15.95580816
  17.00288001 13.22714538 13.98969256
  15.70162226 14.06940030 13.10858615
  15.51174558 12.35342293 13.58220474
  15.22930309 16.44116171 15.32231378
  18.17925904 16.42347771 15.90234529
  17.47373695 17.32436768 14.53778690
  17.22673717 17.92869584 16.18840435
  11.70878104 15.13150989 14.84624556
  13.20203529 15.35893403 14.92103608
  15.32962022 13.81972561 15.22447820
  15.91708185 13.32979678 13.89230899
  16.37681182 14.81509247 15.79209757
  17.31892265 17.01704078 15.58529014
  13.90690415 14.19942390 15.05721003
  16.16605864 16.14178169 15.67158980
  13.67093794 16.51079636 14.90257510
  17.44010155 14.29890550 16.17301614
 


--------------------------------------------------------------------------------------------------------


 k-point  1 :   0.2500 0.2500 0.2500  plane waves:  490454
 k-point  2 :  -0.2500 0.2500 0.2500  plane waves:  490454
 k-point  3 :   0.2500-0.2500 0.2500  plane waves:  490454
 k-point  4 :  -0.2500-0.2500 0.2500  plane waves:  490454

 maximum and minimum number of plane-waves per node :    490454   490454

 maximum number of plane-waves:    490454
 maximum index in each direction: 
   IXMAX=   49   IYMAX=   49   IZMAX=   48
   IXMIN=  -49   IYMIN=  -49   IZMIN=  -49

 WARNING: aliasing errors must be expected set NGX to 198 to avoid them
 WARNING: aliasing errors must be expected set NGY to 198 to avoid them
 WARNING: aliasing errors must be expected set NGZ to 196 to avoid them
 aliasing errors are usually negligible using standard VASP settings
 and one can safely disregard these warnings

 serial   3D FFT for wavefunctions
 parallel 3D FFT for charge:
    minimum data exchange during FFTs selected (reduces bandwidth)


 total amount of memory used by VASP on root node  4333707. kBytes
========================================================================

   base      :      30000. kBytes
   nonlr-proj:       2402. kBytes
   fftplans  :     924480. kBytes
   grid      :    2089440. kBytes
   one-center:         67. kBytes
   wavefun   :    1287318. kBytes
 
     INWAV:  cpu time    0.0010: real time    0.0004
 Broyden mixing: mesh for mixing (old mesh)
   NGX = 97   NGY = 97   NGZ = 97
  (NGX  =300   NGY  =300   NGZ  =300)
  gives a total of 912673 points

 initial charge density was supplied:
 charge density of overlapping atoms calculated
 number of electron      58.0000000 magnetization 
 keeping initial charge density in first step


--------------------------------------------------------------------------------------------------------


 Maximum index for non-local projection operator         2272
 Maximum index for augmentation-charges         1578 (set IRDMAX)


--------------------------------------------------------------------------------------------------------


 First call to EWALD:  gamma=   0.059
 Maximum number of real-space cells 3x 3x 3
 Maximum number of reciprocal cells 3x 3x 3

 FEWALD executed in parallel
    FEWALD:  cpu time    0.0040: real time    0.0048


----------------------------------------- Iteration    1(   1)  ---------------------------------------


    POTLOK:  cpu time   19.9630: real time   19.9465
    SETDIJ:  cpu time    0.0280: real time    0.0283
     EDDAV:  cpu time  251.6657: real time  251.4569
       DOS:  cpu time    0.0000: real time    0.0009
    --------------------------------------------
      LOOP:  cpu time  271.6607: real time  271.4368

 eigenvalue-minimisations  :   392
 total energy-change (2. order) : 0.6092312E+03  (-0.7984937E+03)
 number of electron      58.0000000 magnetization 
 augmentation part       58.0000000 magnetization 

 Free energy of the ion-electron system (eV)
  ---------------------------------------------------
  alpha Z        PSCENC =         0.51957394
  Ewald energy   TEWEN  =      6105.60993243
  -Hartree energ DENC   =     -7847.34778835
  -exchange      EXHF   =         0.00000000
  -V(xc)+E(xc)   XCENC  =       202.21814854
  PAW double counting   =      1779.70502452    -1789.20730229
  entropy T*S    EENTRO =        -0.80343029
  eigenvalues    EBANDS =      -267.44627383
  atomic energy  EATOM  =      2425.98333211
  Solvation  Ediel_sol  =         0.00000000
  ---------------------------------------------------
  free energy    TOTEN  =       609.23121677 eV

  energy without entropy =      610.03464706  energy(sigma->0) =      609.63293191


--------------------------------------------------------------------------------------------------------




----------------------------------------- Iteration    1(   2)  ---------------------------------------


     EDDAV:  cpu time  349.8198: real time  349.5305
       DOS:  cpu time    0.0000: real time    0.0008
    --------------------------------------------
      LOOP:  cpu time  349.8218: real time  349.5346

 eigenvalue-minimisations  :   587
 total energy-change (2. order) :-0.3434776E+03  (-0.3323384E+03)
 number of electron      58.0000000 magnetization 
 augmentation part       58.0000000 magnetization 

 Free energy of the ion-electron system (eV)
  ---------------------------------------------------
  alpha Z        PSCENC =         0.51957394
  Ewald energy   TEWEN  =      6105.60993243
  -Hartree energ DENC   =     -7847.34778835
  -exchange      EXHF   =         0.00000000
  -V(xc)+E(xc)   XCENC  =       202.21814854
  PAW double counting   =      1779.70502452    -1789.20730229
  entropy T*S    EENTRO =        -0.41575879
  eigenvalues    EBANDS =      -611.31157230
  atomic energy  EATOM  =      2425.98333211
  Solvation  Ediel_sol  =         0.00000000
  ---------------------------------------------------
  free energy    TOTEN  =       265.75358979 eV

  energy without entropy =      266.16934859  energy(sigma->0) =      265.96146919


--------------------------------------------------------------------------------------------------------




----------------------------------------- Iteration    1(   3)  ---------------------------------------


     EDDAV:  cpu time  299.1655: real time  298.9172
       DOS:  cpu time    0.0000: real time    0.0006
    --------------------------------------------
      LOOP:  cpu time  299.1665: real time  298.9206

 eigenvalue-minimisations  :   488
 total energy-change (2. order) :-0.3117317E+03  (-0.3029343E+03)
 number of electron      58.0000000 magnetization 
 augmentation part       58.0000000 magnetization 

 Free energy of the ion-electron system (eV)
  ---------------------------------------------------
  alpha Z        PSCENC =         0.51957394
  Ewald energy   TEWEN  =      6105.60993243
  -Hartree energ DENC   =     -7847.34778835
  -exchange      EXHF   =         0.00000000
  -V(xc)+E(xc)   XCENC  =       202.21814854
  PAW double counting   =      1779.70502452    -1789.20730229
  entropy T*S    EENTRO =        -0.00048782
  eigenvalues    EBANDS =      -923.45852360
  atomic energy  EATOM  =      2425.98333211
  Solvation  Ediel_sol  =         0.00000000
  ---------------------------------------------------
  free energy    TOTEN  =       -45.97809054 eV

  energy without entropy =      -45.97760272  energy(sigma->0) =      -45.97784663


--------------------------------------------------------------------------------------------------------




----------------------------------------- Iteration    1(   4)  ---------------------------------------


     EDDAV:  cpu time  252.2836: real time  252.0751
       DOS:  cpu time    0.0010: real time    0.0005
    --------------------------------------------
      LOOP:  cpu time  252.2856: real time  252.0789

 eigenvalue-minimisations  :   395
 total energy-change (2. order) :-0.9037935E+02  (-0.9022494E+02)
 number of electron      58.0000000 magnetization 
 augmentation part       58.0000000 magnetization 

 Free energy of the ion-electron system (eV)
  ---------------------------------------------------
  alpha Z        PSCENC =         0.51957394
  Ewald energy   TEWEN  =      6105.60993243
  -Hartree energ DENC   =     -7847.34778835
  -exchange      EXHF   =         0.00000000
  -V(xc)+E(xc)   XCENC  =       202.21814854
  PAW double counting   =      1779.70502452    -1789.20730229
  entropy T*S    EENTRO =         0.00000000
  eigenvalues    EBANDS =     -1013.83836176
  atomic energy  EATOM  =      2425.98333211
  Solvation  Ediel_sol  =         0.00000000
  ---------------------------------------------------
  free energy    TOTEN  =      -136.35744088 eV

  energy without entropy =     -136.35744088  energy(sigma->0) =     -136.35744088


--------------------------------------------------------------------------------------------------------




----------------------------------------- Iteration    1(   5)  ---------------------------------------


     EDDAV:  cpu time  287.0894: real time  286.8506
       DOS:  cpu time    0.0000: real time    0.0005
    CHARGE:  cpu time   16.5485: real time   16.5350
    MIXING:  cpu time    0.5889: real time    0.5882
    --------------------------------------------
      LOOP:  cpu time  304.2268: real time  303.9773

 eigenvalue-minimisations  :   464
 total energy-change (2. order) :-0.5133780E+01  (-0.5122269E+01)
 number of electron      58.0000055 magnetization 
 augmentation part        2.9657197 magnetization 

 Broyden mixing:
  rms(total) = 0.19546E+01    rms(broyden)= 0.19523E+01
  rms(prec ) = 0.20297E+01
  weight for this iteration     100.00

 Free energy of the ion-electron system (eV)
  ---------------------------------------------------
  alpha Z        PSCENC =         0.51957394
  Ewald energy   TEWEN  =      6105.60993243
  -Hartree energ DENC   =     -7847.34778835
  -exchange      EXHF   =         0.00000000
  -V(xc)+E(xc)   XCENC  =       202.21814854
  PAW double counting   =      1779.70502452    -1789.20730229
  entropy T*S    EENTRO =         0.00000000
  eigenvalues    EBANDS =     -1018.97214224
  atomic energy  EATOM  =      2425.98333211
  Solvation  Ediel_sol  =         0.00000000
  ---------------------------------------------------
  free energy    TOTEN  =      -141.49122136 eV

  energy without entropy =     -141.49122136  energy(sigma->0) =     -141.49122136


--------------------------------------------------------------------------------------------------------




----------------------------------------- Iteration    1(   6)  ---------------------------------------


    POTLOK:  cpu time   18.4502: real time   18.4352
    SETDIJ:  cpu time    0.0280: real time    0.0283
     EDDAV:  cpu time  265.9046: real time  265.6832
       DOS:  cpu time    0.0000: real time    0.0005
    CHARGE:  cpu time   16.4725: real time   16.4583
    MIXING:  cpu time    0.6219: real time    0.6228
    --------------------------------------------
      LOOP:  cpu time  301.4792: real time  301.2344

 eigenvalue-minimisations  :   419
 total energy-change (2. order) : 0.1016779E+02  (-0.2357262E+01)
 number of electron      58.0000052 magnetization 
 augmentation part        2.6328052 magnetization 

 Broyden mixing:
  rms(total) = 0.99328E+00    rms(broyden)= 0.99284E+00
  rms(prec ) = 0.10215E+01
  weight for this iteration     100.00

 eigenvalues of (default mixing * dielectric matrix)
  average eigenvalue GAMMA=   1.2913
  1.2913

 Free energy of the ion-electron system (eV)
  ---------------------------------------------------
  alpha Z        PSCENC =         0.51957394
  Ewald energy   TEWEN  =      6105.60993243
  -Hartree energ DENC   =     -7961.55730355
  -exchange      EXHF   =         0.00000000
  -V(xc)+E(xc)   XCENC  =       208.26840812
  PAW double counting   =      2773.60422245    -2784.45477090
  entropy T*S    EENTRO =         0.00000000
  eigenvalues    EBANDS =      -899.29682917
  atomic energy  EATOM  =      2425.98333211
  Solvation  Ediel_sol  =         0.00000000
  ---------------------------------------------------
  free energy    TOTEN  =      -131.32343457 eV

  energy without entropy =     -131.32343457  energy(sigma->0) =     -131.32343457


--------------------------------------------------------------------------------------------------------




----------------------------------------- Iteration    1(   7)  ---------------------------------------


    POTLOK:  cpu time   18.3892: real time   18.3745
    SETDIJ:  cpu time    0.0290: real time    0.0283
     EDDAV:  cpu time  264.3028: real time  264.0834
       DOS:  cpu time    0.0000: real time    0.0005
    CHARGE:  cpu time   16.5065: real time   16.4915
    MIXING:  cpu time    0.6519: real time    0.6522
    --------------------------------------------
      LOOP:  cpu time  299.8814: real time  299.6345

 eigenvalue-minimisations  :   416
 total energy-change (2. order) : 0.1768631E+01  (-0.4624909E+00)
 number of electron      58.0000053 magnetization 
 augmentation part        2.6156986 magnetization 

 Broyden mixing:
  rms(total) = 0.51191E+00    rms(broyden)= 0.51179E+00
  rms(prec ) = 0.52447E+00
  weight for this iteration     100.00

 eigenvalues of (default mixing * dielectric matrix)
  average eigenvalue GAMMA=   1.5819
  1.1262  2.0376

 Free energy of the ion-electron system (eV)
  ---------------------------------------------------
  alpha Z        PSCENC =         0.51957394
  Ewald energy   TEWEN  =      6105.60993243
  -Hartree energ DENC   =     -8024.34537449
  -exchange      EXHF   =         0.00000000
  -V(xc)+E(xc)   XCENC  =       211.36499790
  PAW double counting   =      3752.19679315    -3763.33185004
  entropy T*S    EENTRO =         0.00000000
  eigenvalues    EBANDS =      -837.55220839
  atomic energy  EATOM  =      2425.98333211
  Solvation  Ediel_sol  =         0.00000000
  ---------------------------------------------------
  free energy    TOTEN  =      -129.55480340 eV

  energy without entropy =     -129.55480340  energy(sigma->0) =     -129.55480340


--------------------------------------------------------------------------------------------------------




----------------------------------------- Iteration    1(   8)  ---------------------------------------


    POTLOK:  cpu time   18.5242: real time   18.5092
    SETDIJ:  cpu time    0.0290: real time    0.0285
     EDDAV:  cpu time  272.3806: real time  272.1541
       DOS:  cpu time    0.0000: real time    0.0005
    CHARGE:  cpu time   16.4805: real time   16.4675
    MIXING:  cpu time    0.6839: real time    0.6832
    --------------------------------------------
      LOOP:  cpu time  308.1002: real time  307.8465

 eigenvalue-minimisations  :   432
 total energy-change (2. order) : 0.4882022E+00  (-0.8567541E-01)
 number of electron      58.0000052 magnetization 
 augmentation part        2.5914684 magnetization 

 Broyden mixing:
  rms(total) = 0.14848E+00    rms(broyden)= 0.14841E+00
  rms(prec ) = 0.15630E+00
  weight for this iteration     100.00

 eigenvalues of (default mixing * dielectric matrix)
  average eigenvalue GAMMA=   1.5448
  2.3838  0.9683  1.2822

 Free energy of the ion-electron system (eV)
  ---------------------------------------------------
  alpha Z        PSCENC =         0.51957394
  Ewald energy   TEWEN  =      6105.60993243
  -Hartree energ DENC   =     -8064.55737999
  -exchange      EXHF   =         0.00000000
  -V(xc)+E(xc)   XCENC  =       213.45701330
  PAW double counting   =      4571.27228711    -4582.58026189
  entropy T*S    EENTRO =         0.00000000
  eigenvalues    EBANDS =      -798.77109820
  atomic energy  EATOM  =      2425.98333211
  Solvation  Ediel_sol  =         0.00000000
  ---------------------------------------------------
  free energy    TOTEN  =      -129.06660120 eV

  energy without entropy =     -129.06660120  energy(sigma->0) =     -129.06660120


--------------------------------------------------------------------------------------------------------




----------------------------------------- Iteration    1(   9)  ---------------------------------------


    POTLOK:  cpu time   18.4082: real time   18.3924
    SETDIJ:  cpu time    0.0280: real time    0.0284
     EDDAV:  cpu time  289.1310: real time  288.8907
       DOS:  cpu time    0.0000: real time    0.0005
    CHARGE:  cpu time   16.4875: real time   16.4741
    MIXING:  cpu time    0.7219: real time    0.7207
    --------------------------------------------
      LOOP:  cpu time  324.7786: real time  324.5102

 eigenvalue-minimisations  :   464
 total energy-change (2. order) : 0.6710584E-01  (-0.1007066E-01)
 number of electron      58.0000051 magnetization 
 augmentation part        2.5821222 magnetization 

 Broyden mixing:
  rms(total) = 0.56409E-01    rms(broyden)= 0.56377E-01
  rms(prec ) = 0.65036E-01
  weight for this iteration     100.00

 eigenvalues of (default mixing * dielectric matrix)
  average eigenvalue GAMMA=   1.5271
  2.1916  1.0620  1.0620  1.7928

 Free energy of the ion-electron system (eV)
  ---------------------------------------------------
  alpha Z        PSCENC =         0.51957394
  Ewald energy   TEWEN  =      6105.60993243
  -Hartree energ DENC   =     -8078.11376209
  -exchange      EXHF   =         0.00000000
  -V(xc)+E(xc)   XCENC  =       214.01074281
  PAW double counting   =      4797.06541471    -4808.35004855
  entropy T*S    EENTRO =         0.00000000
  eigenvalues    EBANDS =      -785.72468071
  atomic energy  EATOM  =      2425.98333211
  Solvation  Ediel_sol  =         0.00000000
  ---------------------------------------------------
  free energy    TOTEN  =      -128.99949536 eV

  energy without entropy =     -128.99949536  energy(sigma->0) =     -128.99949536


--------------------------------------------------------------------------------------------------------




----------------------------------------- Iteration    1(  10)  ---------------------------------------


    POTLOK:  cpu time   18.4032: real time   18.3889
    SETDIJ:  cpu time    0.0290: real time    0.0283
     EDDAV:  cpu time  262.8530: real time  262.6357
       DOS:  cpu time    0.0000: real time    0.0005
    CHARGE:  cpu time   16.4125: real time   16.3990
    MIXING:  cpu time    0.7789: real time    0.7780
    --------------------------------------------
      LOOP:  cpu time  298.4786: real time  298.2338

 eigenvalue-minimisations  :   413
 total energy-change (2. order) : 0.1219432E-01  (-0.2426367E-02)
 number of electron      58.0000052 magnetization 
 augmentation part        2.5879679 magnetization 

 Broyden mixing:
  rms(total) = 0.25768E-01    rms(broyden)= 0.25743E-01
  rms(prec ) = 0.35763E-01
  weight for this iteration     100.00

 eigenvalues of (default mixing * dielectric matrix)
  average eigenvalue GAMMA=   1.4941
  2.1669  2.1669  0.9906  0.9906  1.1557

 Free energy of the ion-electron system (eV)
  ---------------------------------------------------
  alpha Z        PSCENC =         0.51957394
  Ewald energy   TEWEN  =      6105.60993243
  -Hartree energ DENC   =     -8083.25481557
  -exchange      EXHF   =         0.00000000
  -V(xc)+E(xc)   XCENC  =       214.03060500
  PAW double counting   =      4790.98113899    -4802.21508010
  entropy T*S    EENTRO =         0.00000000
  eigenvalues    EBANDS =      -780.64198784
  atomic energy  EATOM  =      2425.98333211
  Solvation  Ediel_sol  =         0.00000000
  ---------------------------------------------------
  free energy    TOTEN  =      -128.98730104 eV

  energy without entropy =     -128.98730104  energy(sigma->0) =     -128.98730104


--------------------------------------------------------------------------------------------------------




----------------------------------------- Iteration    1(  11)  ---------------------------------------


    POTLOK:  cpu time   18.3802: real time   18.3655
    SETDIJ:  cpu time    0.0280: real time    0.0283
     EDDAV:  cpu time  285.0457: real time  284.8079
       DOS:  cpu time    0.0010: real time    0.0005
    CHARGE:  cpu time   16.4695: real time   16.4561
    MIXING:  cpu time    0.7939: real time    0.7935
    --------------------------------------------
      LOOP:  cpu time  320.7192: real time  320.4550

 eigenvalue-minimisations  :   456
 total energy-change (2. order) : 0.5694265E-02  (-0.8067357E-03)
 number of electron      58.0000051 magnetization 
 augmentation part        2.5838172 magnetization 

 Broyden mixing:
  rms(total) = 0.16059E-01    rms(broyden)= 0.16049E-01
  rms(prec ) = 0.24826E-01
  weight for this iteration     100.00

 eigenvalues of (default mixing * dielectric matrix)
  average eigenvalue GAMMA=   1.5486
  2.4758  2.4758  0.9492  0.9492  1.2206  1.2206

 Free energy of the ion-electron system (eV)
  ---------------------------------------------------
  alpha Z        PSCENC =         0.51957394
  Ewald energy   TEWEN  =      6105.60993243
  -Hartree energ DENC   =     -8089.09746470
  -exchange      EXHF   =         0.00000000
  -V(xc)+E(xc)   XCENC  =       214.13724160
  PAW double counting   =      4793.71437280    -4804.94782512
  entropy T*S    EENTRO =         0.00000000
  eigenvalues    EBANDS =      -774.90076983
  atomic energy  EATOM  =      2425.98333211
  Solvation  Ediel_sol  =         0.00000000
  ---------------------------------------------------
  free energy    TOTEN  =      -128.98160677 eV

  energy without entropy =     -128.98160677  energy(sigma->0) =     -128.98160677


--------------------------------------------------------------------------------------------------------




----------------------------------------- Iteration    1(  12)  ---------------------------------------


    POTLOK:  cpu time   18.4242: real time   18.4085
    SETDIJ:  cpu time    0.0280: real time    0.0283
     EDDAV:  cpu time  256.4360: real time  256.2230
       DOS:  cpu time    0.0000: real time    0.0005
    CHARGE:  cpu time   16.5565: real time   16.5448
    MIXING:  cpu time    0.8639: real time    0.8628
    --------------------------------------------
      LOOP:  cpu time  292.3106: real time  292.0715

 eigenvalue-minimisations  :   400
 total energy-change (2. order) :-0.4273561E-04  (-0.5370603E-03)
 number of electron      58.0000051 magnetization 
 augmentation part        2.5834160 magnetization 

 Broyden mixing:
  rms(total) = 0.98138E-02    rms(broyden)= 0.98093E-02
  rms(prec ) = 0.16075E-01
  weight for this iteration     100.00

 eigenvalues of (default mixing * dielectric matrix)
  average eigenvalue GAMMA=   1.6045
  2.7405  2.7405  1.3557  1.2286  1.2286  0.9686  0.9686

 Free energy of the ion-electron system (eV)
  ---------------------------------------------------
  alpha Z        PSCENC =         0.51957394
  Ewald energy   TEWEN  =      6105.60993243
  -Hartree energ DENC   =     -8095.49735918
  -exchange      EXHF   =         0.00000000
  -V(xc)+E(xc)   XCENC  =       214.21916051
  PAW double counting   =      4789.13513497    -4800.35881459
  entropy T*S    EENTRO =         0.00000000
  eigenvalues    EBANDS =      -768.59260970
  atomic energy  EATOM  =      2425.98333211
  Solvation  Ediel_sol  =         0.00000000
  ---------------------------------------------------
  free energy    TOTEN  =      -128.98164951 eV

  energy without entropy =     -128.98164951  energy(sigma->0) =     -128.98164951


--------------------------------------------------------------------------------------------------------




----------------------------------------- Iteration    1(  13)  ---------------------------------------


    POTLOK:  cpu time   18.5162: real time   18.5021
    SETDIJ:  cpu time    0.0280: real time    0.0283
     EDDAV:  cpu time  280.7003: real time  280.4872
       DOS:  cpu time    0.0000: real time    0.0005
    CHARGE:  cpu time   16.4415: real time   16.4291
    MIXING:  cpu time    0.9219: real time    0.9205
    --------------------------------------------
      LOOP:  cpu time  316.6089: real time  316.3708

 eigenvalue-minimisations  :   446
 total energy-change (2. order) :-0.6181678E-02  (-0.4451342E-03)
 number of electron      58.0000051 magnetization 
 augmentation part        2.5821615 magnetization 

 Broyden mixing:
  rms(total) = 0.57741E-02    rms(broyden)= 0.57674E-02
  rms(prec ) = 0.94892E-02
  weight for this iteration     100.00

 eigenvalues of (default mixing * dielectric matrix)
  average eigenvalue GAMMA=   1.7176
  4.1264  2.4869  1.5904  1.5086  1.0306  1.0306  0.9837  0.9837

 Free energy of the ion-electron system (eV)
  ---------------------------------------------------
  alpha Z        PSCENC =         0.51957394
  Ewald energy   TEWEN  =      6105.60993243
  -Hartree energ DENC   =     -8101.17956961
  -exchange      EXHF   =         0.00000000
  -V(xc)+E(xc)   XCENC  =       214.28469955
  PAW double counting   =      4782.63069918    -4793.85361082
  entropy T*S    EENTRO =         0.00000000
  eigenvalues    EBANDS =      -762.98288796
  atomic energy  EATOM  =      2425.98333211
  Solvation  Ediel_sol  =         0.00000000
  ---------------------------------------------------
  free energy    TOTEN  =      -128.98783119 eV

  energy without entropy =     -128.98783119  energy(sigma->0) =     -128.98783119


--------------------------------------------------------------------------------------------------------




----------------------------------------- Iteration    1(  14)  ---------------------------------------


    POTLOK:  cpu time   18.5662: real time   18.5524
    SETDIJ:  cpu time    0.0280: real time    0.0283
     EDDAV:  cpu time  273.2285: real time  273.0210
       DOS:  cpu time    0.0000: real time    0.0005
    CHARGE:  cpu time   16.5175: real time   16.5048
    MIXING:  cpu time    0.9579: real time    0.9571
    --------------------------------------------
      LOOP:  cpu time  309.2990: real time  309.0673

 eigenvalue-minimisations  :   432
 total energy-change (2. order) :-0.6905240E-02  (-0.2030222E-03)
 number of electron      58.0000051 magnetization 
 augmentation part        2.5813984 magnetization 

 Broyden mixing:
  rms(total) = 0.38413E-02    rms(broyden)= 0.38366E-02
  rms(prec ) = 0.58389E-02
  weight for this iteration     100.00

 eigenvalues of (default mixing * dielectric matrix)
  average eigenvalue GAMMA=   1.8105
  4.9808  2.4255  2.1347  1.2772  1.2772  1.1329  1.1329  0.9666  0.9666

 Free energy of the ion-electron system (eV)
  ---------------------------------------------------
  alpha Z        PSCENC =         0.51957394
  Ewald energy   TEWEN  =      6105.60993243
  -Hartree energ DENC   =     -8104.68662764
  -exchange      EXHF   =         0.00000000
  -V(xc)+E(xc)   XCENC  =       214.30919494
  PAW double counting   =      4777.88424921    -4789.10457380
  entropy T*S    EENTRO =         0.00000000
  eigenvalues    EBANDS =      -759.50981762
  atomic energy  EATOM  =      2425.98333211
  Solvation  Ediel_sol  =         0.00000000
  ---------------------------------------------------
  free energy    TOTEN  =      -128.99473643 eV

  energy without entropy =     -128.99473643  energy(sigma->0) =     -128.99473643


--------------------------------------------------------------------------------------------------------




----------------------------------------- Iteration    1(  15)  ---------------------------------------


    POTLOK:  cpu time   18.5482: real time   18.5335
    SETDIJ:  cpu time    0.0280: real time    0.0286
     EDDAV:  cpu time  245.4017: real time  245.2159
       DOS:  cpu time    0.0000: real time    0.0005
    CHARGE:  cpu time   16.4945: real time   16.4818
    MIXING:  cpu time    1.0158: real time    1.0151
    --------------------------------------------
      LOOP:  cpu time  281.4902: real time  281.2791

 eigenvalue-minimisations  :   378
 total energy-change (2. order) :-0.7443560E-02  (-0.7493054E-04)
 number of electron      58.0000051 magnetization 
 augmentation part        2.5813244 magnetization 

 Broyden mixing:
  rms(total) = 0.24230E-02    rms(broyden)= 0.24214E-02
  rms(prec ) = 0.35967E-02
  weight for this iteration     100.00

 eigenvalues of (default mixing * dielectric matrix)
  average eigenvalue GAMMA=   1.8970
  5.5959  2.7494  2.3745  1.5727  1.5727  0.9587  1.0144  1.0144  1.0589  1.0589

 Free energy of the ion-electron system (eV)
  ---------------------------------------------------
  alpha Z        PSCENC =         0.51957394
  Ewald energy   TEWEN  =      6105.60993243
  -Hartree energ DENC   =     -8106.25870460
  -exchange      EXHF   =         0.00000000
  -V(xc)+E(xc)   XCENC  =       214.30723331
  PAW double counting   =      4777.23540499    -4788.45435233
  entropy T*S    EENTRO =         0.00000000
  eigenvalues    EBANDS =      -757.94459984
  atomic energy  EATOM  =      2425.98333211
  Solvation  Ediel_sol  =         0.00000000
  ---------------------------------------------------
  free energy    TOTEN  =      -129.00217999 eV

  energy without entropy =     -129.00217999  energy(sigma->0) =     -129.00217999


--------------------------------------------------------------------------------------------------------




----------------------------------------- Iteration    1(  16)  ---------------------------------------


    POTLOK:  cpu time   18.6652: real time   18.6507
    SETDIJ:  cpu time    0.0290: real time    0.0287
     EDDAV:  cpu time  232.8106: real time  232.6342
       DOS:  cpu time    0.0000: real time    0.0005
    CHARGE:  cpu time   16.4875: real time   16.4750
    MIXING:  cpu time    1.0378: real time    1.0365
    --------------------------------------------
      LOOP:  cpu time  269.0321: real time  268.8295

 eigenvalue-minimisations  :   352
 total energy-change (2. order) :-0.5752584E-02  (-0.4138049E-04)
 number of electron      58.0000051 magnetization 
 augmentation part        2.5813142 magnetization 

 Broyden mixing:
  rms(total) = 0.13516E-02    rms(broyden)= 0.13512E-02
  rms(prec ) = 0.20584E-02
  weight for this iteration     100.00

 eigenvalues of (default mixing * dielectric matrix)
  average eigenvalue GAMMA=   1.9876
  6.5193  3.2011  2.3152  2.0187  1.3664  1.3664  0.9726  1.0388  1.0388  1.0130
  1.0130

 Free energy of the ion-electron system (eV)
  ---------------------------------------------------
  alpha Z        PSCENC =         0.51957394
  Ewald energy   TEWEN  =      6105.60993243
  -Hartree energ DENC   =     -8106.95968644
  -exchange      EXHF   =         0.00000000
  -V(xc)+E(xc)   XCENC  =       214.29922388
  PAW double counting   =      4777.11368044    -4788.33240205
  entropy T*S    EENTRO =         0.00000000
  eigenvalues    EBANDS =      -757.24158688
  atomic energy  EATOM  =      2425.98333211
  Solvation  Ediel_sol  =         0.00000000
  ---------------------------------------------------
  free energy    TOTEN  =      -129.00793257 eV

  energy without entropy =     -129.00793257  energy(sigma->0) =     -129.00793257


--------------------------------------------------------------------------------------------------------




----------------------------------------- Iteration    1(  17)  ---------------------------------------


    POTLOK:  cpu time   18.5202: real time   18.5054
    SETDIJ:  cpu time    0.0280: real time    0.0283
     EDDAV:  cpu time  196.3551: real time  196.2060
       DOS:  cpu time    0.0000: real time    0.0005
    CHARGE:  cpu time   16.4975: real time   16.4854
    MIXING:  cpu time    1.1078: real time    1.1065
    --------------------------------------------
      LOOP:  cpu time  232.5087: real time  232.3351

 eigenvalue-minimisations  :   280
 total energy-change (2. order) :-0.3140836E-02  (-0.1911997E-04)
 number of electron      58.0000051 magnetization 
 augmentation part        2.5812902 magnetization 

 Broyden mixing:
  rms(total) = 0.85762E-03    rms(broyden)= 0.85732E-03
  rms(prec ) = 0.12511E-02
  weight for this iteration     100.00

 eigenvalues of (default mixing * dielectric matrix)
  average eigenvalue GAMMA=   2.0737
  7.1546  3.7730  2.3071  2.2795  1.5706  1.5706  1.0953  1.0953  1.0080  1.0080
  1.0114  1.0114

 Free energy of the ion-electron system (eV)
  ---------------------------------------------------
  alpha Z        PSCENC =         0.51957394
  Ewald energy   TEWEN  =      6105.60993243
  -Hartree energ DENC   =     -8107.31087561
  -exchange      EXHF   =         0.00000000
  -V(xc)+E(xc)   XCENC  =       214.29360645
  PAW double counting   =      4777.19380623    -4788.41211752
  entropy T*S    EENTRO =         0.00000000
  eigenvalues    EBANDS =      -756.88833143
  atomic energy  EATOM  =      2425.98333211
  Solvation  Ediel_sol  =         0.00000000
  ---------------------------------------------------
  free energy    TOTEN  =      -129.01107341 eV

  energy without entropy =     -129.01107341  energy(sigma->0) =     -129.01107341


--------------------------------------------------------------------------------------------------------




----------------------------------------- Iteration    1(  18)  ---------------------------------------


    POTLOK:  cpu time   18.4802: real time   18.4660
    SETDIJ:  cpu time    0.0280: real time    0.0284
     EDDAV:  cpu time  228.7372: real time  228.5626
       DOS:  cpu time    0.0000: real time    0.0005
    CHARGE:  cpu time   16.5025: real time   16.4896
    MIXING:  cpu time    1.1788: real time    1.1787
    --------------------------------------------
      LOOP:  cpu time  264.9277: real time  264.7287

 eigenvalue-minimisations  :   344
 total energy-change (2. order) :-0.1965999E-02  (-0.1684492E-04)
 number of electron      58.0000051 magnetization 
 augmentation part        2.5812198 magnetization 

 Broyden mixing:
  rms(total) = 0.53787E-03    rms(broyden)= 0.53746E-03
  rms(prec ) = 0.72348E-03
  weight for this iteration     100.00

 eigenvalues of (default mixing * dielectric matrix)
  average eigenvalue GAMMA=   2.1006
  7.6358  4.2190  2.4331  2.4331  1.7139  1.4268  1.4268  1.0649  1.0649  0.9942
  0.9942  0.9507  0.9507

 Free energy of the ion-electron system (eV)
  ---------------------------------------------------
  alpha Z        PSCENC =         0.51957394
  Ewald energy   TEWEN  =      6105.60993243
  -Hartree energ DENC   =     -8107.49146256
  -exchange      EXHF   =         0.00000000
  -V(xc)+E(xc)   XCENC  =       214.29122196
  PAW double counting   =      4777.68421740    -4788.90267268
  entropy T*S    EENTRO =         0.00000000
  eigenvalues    EBANDS =      -756.70718200
  atomic energy  EATOM  =      2425.98333211
  Solvation  Ediel_sol  =         0.00000000
  ---------------------------------------------------
  free energy    TOTEN  =      -129.01303941 eV

  energy without entropy =     -129.01303941  energy(sigma->0) =     -129.01303941


--------------------------------------------------------------------------------------------------------




----------------------------------------- Iteration    1(  19)  ---------------------------------------


    POTLOK:  cpu time   18.5752: real time   18.5617
    SETDIJ:  cpu time    0.0290: real time    0.0284
     EDDAV:  cpu time  231.6318: real time  231.4563
       DOS:  cpu time    0.0000: real time    0.0005
    CHARGE:  cpu time   16.5105: real time   16.4982
    MIXING:  cpu time    1.2668: real time    1.2663
    --------------------------------------------
      LOOP:  cpu time  268.0163: real time  267.8151

 eigenvalue-minimisations  :   348
 total energy-change (2. order) :-0.6449509E-03  (-0.2270297E-05)
 number of electron      58.0000051 magnetization 
 augmentation part        2.5812174 magnetization 

 Broyden mixing:
  rms(total) = 0.29557E-03    rms(broyden)= 0.29547E-03
  rms(prec ) = 0.43174E-03
  weight for this iteration     100.00

 eigenvalues of (default mixing * dielectric matrix)
  average eigenvalue GAMMA=   2.1501
  8.1344  4.7756  2.5938  2.5938  1.6336  1.6336  1.4807  1.0814  1.0814  0.9980
  0.9980  0.9826  1.0572  1.0572

 Free energy of the ion-electron system (eV)
  ---------------------------------------------------
  alpha Z        PSCENC =         0.51957394
  Ewald energy   TEWEN  =      6105.60993243
  -Hartree energ DENC   =     -8107.53357574
  -exchange      EXHF   =         0.00000000
  -V(xc)+E(xc)   XCENC  =       214.29002901
  PAW double counting   =      4777.56251700    -4788.78099681
  entropy T*S    EENTRO =         0.00000000
  eigenvalues    EBANDS =      -756.66449628
  atomic energy  EATOM  =      2425.98333211
  Solvation  Ediel_sol  =         0.00000000
  ---------------------------------------------------
  free energy    TOTEN  =      -129.01368436 eV

  energy without entropy =     -129.01368436  energy(sigma->0) =     -129.01368436


--------------------------------------------------------------------------------------------------------




----------------------------------------- Iteration    1(  20)  ---------------------------------------


    POTLOK:  cpu time   18.4832: real time   18.4695
    SETDIJ:  cpu time    0.0280: real time    0.0283
     EDDAV:  cpu time  195.8242: real time  195.6745
       DOS:  cpu time    0.0000: real time    0.0005
    CHARGE:  cpu time   16.5075: real time   16.4948
    MIXING:  cpu time    1.3138: real time    1.3137
    --------------------------------------------
      LOOP:  cpu time  232.1577: real time  231.9848

 eigenvalue-minimisations  :   279
 total energy-change (2. order) :-0.4172457E-03  (-0.1596778E-05)
 number of electron      58.0000051 magnetization 
 augmentation part        2.5812128 magnetization 

 Broyden mixing:
  rms(total) = 0.21092E-03    rms(broyden)= 0.21077E-03
  rms(prec ) = 0.28385E-03
  weight for this iteration     100.00

 eigenvalues of (default mixing * dielectric matrix)
  average eigenvalue GAMMA=   2.1842
  8.3059  5.2646  2.9299  2.5331  2.1345  1.5488  1.4042  1.4042  1.0689  1.0689
  1.0109  1.0560  1.0560  0.9884  0.9884

 Free energy of the ion-electron system (eV)
  ---------------------------------------------------
  alpha Z        PSCENC =         0.51957394
  Ewald energy   TEWEN  =      6105.60993243
  -Hartree energ DENC   =     -8107.55494514
  -exchange      EXHF   =         0.00000000
  -V(xc)+E(xc)   XCENC  =       214.28904872
  PAW double counting   =      4777.45112765    -4788.66952571
  entropy T*S    EENTRO =         0.00000000
  eigenvalues    EBANDS =      -756.64264559
  atomic energy  EATOM  =      2425.98333211
  Solvation  Ediel_sol  =         0.00000000
  ---------------------------------------------------
  free energy    TOTEN  =      -129.01410160 eV

  energy without entropy =     -129.01410160  energy(sigma->0) =     -129.01410160


--------------------------------------------------------------------------------------------------------




----------------------------------------- Iteration    1(  21)  ---------------------------------------


    POTLOK:  cpu time   18.4832: real time   18.4691
    SETDIJ:  cpu time    0.0280: real time    0.0285
     EDDAV:  cpu time  219.5446: real time  219.3782
       DOS:  cpu time    0.0000: real time    0.0005
    CHARGE:  cpu time   16.5945: real time   16.5814
    MIXING:  cpu time    1.4248: real time    1.4246
    --------------------------------------------
      LOOP:  cpu time  256.0781: real time  255.8860

 eigenvalue-minimisations  :   324
 total energy-change (2. order) :-0.2364713E-03  (-0.6612226E-06)
 number of electron      58.0000051 magnetization 
 augmentation part        2.5811980 magnetization 

 Broyden mixing:
  rms(total) = 0.10636E-03    rms(broyden)= 0.10627E-03
  rms(prec ) = 0.15012E-03
  weight for this iteration     100.00

 eigenvalues of (default mixing * dielectric matrix)
  average eigenvalue GAMMA=   2.2132
  8.4644  5.7801  3.3488  2.5258  2.3833  1.5631  1.5631  1.4949  1.1223  1.1223
  1.0549  1.0549  1.0127  0.9589  0.9810  0.9810

 Free energy of the ion-electron system (eV)
  ---------------------------------------------------
  alpha Z        PSCENC =         0.51957394
  Ewald energy   TEWEN  =      6105.60993243
  -Hartree energ DENC   =     -8107.56694603
  -exchange      EXHF   =         0.00000000
  -V(xc)+E(xc)   XCENC  =       214.28886918
  PAW double counting   =      4777.45550632    -4788.67394411
  entropy T*S    EENTRO =         0.00000000
  eigenvalues    EBANDS =      -756.63066191
  atomic energy  EATOM  =      2425.98333211
  Solvation  Ediel_sol  =         0.00000000
  ---------------------------------------------------
  free energy    TOTEN  =      -129.01433808 eV

  energy without entropy =     -129.01433808  energy(sigma->0) =     -129.01433808


--------------------------------------------------------------------------------------------------------




----------------------------------------- Iteration    1(  22)  ---------------------------------------


    POTLOK:  cpu time   18.5332: real time   18.5199
    SETDIJ:  cpu time    0.0280: real time    0.0284
     EDDAV:  cpu time  233.2925: real time  233.1146
       DOS:  cpu time    0.0000: real time    0.0005
    --------------------------------------------
      LOOP:  cpu time  251.8557: real time  251.8395

 eigenvalue-minimisations  :   350
 total energy-change (2. order) :-0.9920121E-04  (-0.2094813E-06)
 number of electron      58.0000051 magnetization 
 augmentation part        2.5811980 magnetization 

 Free energy of the ion-electron system (eV)
  ---------------------------------------------------
  alpha Z        PSCENC =         0.51957394
  Ewald energy   TEWEN  =      6105.60993243
  -Hartree energ DENC   =     -8107.58200220
  -exchange      EXHF   =         0.00000000
  -V(xc)+E(xc)   XCENC  =       214.28874748
  PAW double counting   =      4777.42697086    -4788.64539728
  entropy T*S    EENTRO =         0.00000000
  eigenvalues    EBANDS =      -756.61559461
  atomic energy  EATOM  =      2425.98333211
  Solvation  Ediel_sol  =         0.00000000
  ---------------------------------------------------
  free energy    TOTEN  =      -129.01443728 eV

  energy without entropy =     -129.01443728  energy(sigma->0) =     -129.01443728


--------------------------------------------------------------------------------------------------------




 average (electrostatic) potential at core
  the test charge radii are     0.5201  0.6991  0.7089  0.7215
  (the norm of the test charge is              1.0000)
       1 -42.4355       2 -42.7062       3 -42.6469       4 -44.8534       5 -42.2986
       6 -41.8706       7 -42.0158       8 -42.0751       9 -42.8796      10 -41.5849
      11 -41.7066      12 -41.7428      13 -59.1430      14 -61.6789      15 -60.1397
      16 -58.7065      17 -60.7992      18 -58.9149      19 -74.8465      20 -73.6717
      21 -80.2240      22 -79.1835
 
 
 
 E-fermi :  -4.5483     XC(G=0):  -0.1575     alpha+bet : -0.0465


 k-point     1 :       0.2500    0.2500    0.2500
  band No.  band energies     occupation 
      1     -26.3963      2.00000
      2     -25.4929      2.00000
      3     -23.6183      2.00000
      4     -22.5346      2.00000
      5     -19.7313      2.00000
      6     -18.3415      2.00000
      7     -17.2528      2.00000
      8     -16.0896      2.00000
      9     -14.9393      2.00000
     10     -13.8674      2.00000
     11     -13.0645      2.00000
     12     -12.5254      2.00000
     13     -11.7332      2.00000
     14     -11.4421      2.00000
     15     -11.1339      2.00000
     16     -10.5736      2.00000
     17     -10.4499      2.00000
     18     -10.2063      2.00000
     19     -10.0826      2.00000
     20      -9.9907      2.00000
     21      -9.3474      2.00000
     22      -9.1929      2.00000
     23      -8.8985      2.00000
     24      -8.8219      2.00000
     25      -8.3340      2.00000
     26      -6.6517      2.00000
     27      -6.3924      2.00000
     28      -5.6748      2.00000
     29      -5.5282      2.00000
     30      -1.2339      0.00000
     31      -1.0473      0.00000
     32      -0.5810      0.00000
     33      -0.2472      0.00000
     34      -0.1486      0.00000
     35      -0.0673      0.00000
     36       0.0112      0.00000
     37       0.0777      0.00000
     38       0.1018      0.00000
     39       0.1048      0.00000
     40       0.1527      0.00000
     41       0.1775      0.00000

 k-point     2 :      -0.2500    0.2500    0.2500
  band No.  band energies     occupation 
      1     -26.3963      2.00000
      2     -25.4929      2.00000
      3     -23.6183      2.00000
      4     -22.5346      2.00000
      5     -19.7313      2.00000
      6     -18.3415      2.00000
      7     -17.2528      2.00000
      8     -16.0896      2.00000
      9     -14.9393      2.00000
     10     -13.8674      2.00000
     11     -13.0644      2.00000
     12     -12.5254      2.00000
     13     -11.7332      2.00000
     14     -11.4420      2.00000
     15     -11.1340      2.00000
     16     -10.5736      2.00000
     17     -10.4499      2.00000
     18     -10.2063      2.00000
     19     -10.0826      2.00000
     20      -9.9907      2.00000
     21      -9.3474      2.00000
     22      -9.1929      2.00000
     23      -8.8985      2.00000
     24      -8.8219      2.00000
     25      -8.3340      2.00000
     26      -6.6517      2.00000
     27      -6.3924      2.00000
     28      -5.6748      2.00000
     29      -5.5282      2.00000
     30      -1.2339      0.00000
     31      -1.0473      0.00000
     32      -0.5810      0.00000
     33      -0.2472      0.00000
     34      -0.1485      0.00000
     35      -0.0671      0.00000
     36       0.0112      0.00000
     37       0.0727      0.00000
     38       0.0993      0.00000
     39       0.1117      0.00000
     40       0.1603      0.00000
     41       0.1681      0.00000

 k-point     3 :       0.2500   -0.2500    0.2500
  band No.  band energies     occupation 
      1     -26.3963      2.00000
      2     -25.4929      2.00000
      3     -23.6183      2.00000
      4     -22.5346      2.00000
      5     -19.7313      2.00000
      6     -18.3415      2.00000
      7     -17.2528      2.00000
      8     -16.0896      2.00000
      9     -14.9393      2.00000
     10     -13.8674      2.00000
     11     -13.0644      2.00000
     12     -12.5253      2.00000
     13     -11.7332      2.00000
     14     -11.4421      2.00000
     15     -11.1339      2.00000
     16     -10.5736      2.00000
     17     -10.4499      2.00000
     18     -10.2063      2.00000
     19     -10.0826      2.00000
     20      -9.9907      2.00000
     21      -9.3474      2.00000
     22      -9.1929      2.00000
     23      -8.8985      2.00000
     24      -8.8219      2.00000
     25      -8.3340      2.00000
     26      -6.6517      2.00000
     27      -6.3924      2.00000
     28      -5.6748      2.00000
     29      -5.5282      2.00000
     30      -1.2339      0.00000
     31      -1.0473      0.00000
     32      -0.5810      0.00000
     33      -0.2473      0.00000
     34      -0.1485      0.00000
     35      -0.0654      0.00000
     36       0.0042      0.00000
     37       0.0807      0.00000
     38       0.1003      0.00000
     39       0.1127      0.00000
     40       0.1576      0.00000
     41       0.1674      0.00000

 k-point     4 :      -0.2500   -0.2500    0.2500
  band No.  band energies     occupation 
      1     -26.3963      2.00000
      2     -25.4929      2.00000
      3     -23.6183      2.00000
      4     -22.5346      2.00000
      5     -19.7313      2.00000
      6     -18.3415      2.00000
      7     -17.2528      2.00000
      8     -16.0896      2.00000
      9     -14.9393      2.00000
     10     -13.8674      2.00000
     11     -13.0644      2.00000
     12     -12.5254      2.00000
     13     -11.7332      2.00000
     14     -11.4421      2.00000
     15     -11.1339      2.00000
     16     -10.5736      2.00000
     17     -10.4499      2.00000
     18     -10.2063      2.00000
     19     -10.0826      2.00000
     20      -9.9907      2.00000
     21      -9.3474      2.00000
     22      -9.1929      2.00000
     23      -8.8985      2.00000
[...]
 augmentation part        2.5808728 magnetization 

 Free energy of the ion-electron system (eV)
  ---------------------------------------------------
  alpha Z        PSCENC =         0.51957394
  Ewald energy   TEWEN  =      6060.75390871
  -Hartree energ DENC   =     -8064.03643560
  -exchange      EXHF   =         0.00000000
  -V(xc)+E(xc)   XCENC  =       214.12444870
  PAW double counting   =      4766.19464320    -4777.41200774
  entropy T*S    EENTRO =         0.00000000
  eigenvalues    EBANDS =      -755.35708884
  atomic energy  EATOM  =      2425.98333211
  Solvation  Ediel_sol  =         0.00000000
  ---------------------------------------------------
  free energy    TOTEN  =      -129.22962553 eV

  energy without entropy =     -129.22962553  energy(sigma->0) =     -129.22962553


--------------------------------------------------------------------------------------------------------




 average (electrostatic) potential at core
  the test charge radii are     0.5201  0.6991  0.7089  0.7215
  (the norm of the test charge is              1.0000)
       1 -42.3398       2 -42.6044       3 -42.5973       4 -44.8074       5 -42.3338
       6 -41.8785       7 -41.9735       8 -42.0756       9 -43.0310      10 -41.6319
      11 -41.7791      12 -41.7763      13 -59.1228      14 -61.6018      15 -60.0926
      16 -58.7062      17 -60.8027      18 -58.9985      19 -74.8291      20 -73.7860
      21 -80.0995      22 -79.1581
 
 
 
 E-fermi :  -4.5042     XC(G=0):  -0.1337     alpha+bet : -0.0465


 k-point     1 :       0.2500    0.2500    0.2500
  band No.  band energies     occupation 
      1     -26.2734      2.00000
      2     -25.4697      2.00000
      3     -23.5286      2.00000
      4     -22.5765      2.00000
      5     -19.6573      2.00000
      6     -18.2914      2.00000
      7     -17.3266      2.00000
      8     -16.0928      2.00000
      9     -14.9091      2.00000
     10     -13.8713      2.00000
     11     -13.1249      2.00000
     12     -12.4913      2.00000
     13     -11.6177      2.00000
     14     -11.4182      2.00000
     15     -11.0681      2.00000
     16     -10.6032      2.00000
     17     -10.4508      2.00000
     18     -10.1182      2.00000
     19     -10.0795      2.00000
     20      -9.9494      2.00000
     21      -9.3508      2.00000
     22      -9.1081      2.00000
     23      -8.9412      2.00000
     24      -8.7890      2.00000
     25      -8.4037      2.00000
     26      -6.6568      2.00000
     27      -6.3098      2.00000
     28      -5.7059      2.00000
     29      -5.4951      2.00000
     30      -1.1266      0.00000
     31      -1.0468      0.00000
     32      -0.4658      0.00000
     33      -0.2554      0.00000
     34      -0.1853      0.00000
     35      -0.0443      0.00000
     36       0.0441      0.00000
     37       0.1053      0.00000
     38       0.1298      0.00000
     39       0.1325      0.00000
     40       0.1762      0.00000
     41       0.1994      0.00000

 k-point     2 :      -0.2500    0.2500    0.2500
  band No.  band energies     occupation 
      1     -26.2734      2.00000
      2     -25.4697      2.00000
      3     -23.5286      2.00000
      4     -22.5765      2.00000
      5     -19.6573      2.00000
      6     -18.2914      2.00000
      7     -17.3266      2.00000
      8     -16.0928      2.00000
      9     -14.9091      2.00000
     10     -13.8713      2.00000
     11     -13.1249      2.00000
     12     -12.4913      2.00000
     13     -11.6177      2.00000
     14     -11.4182      2.00000
     15     -11.0681      2.00000
     16     -10.6032      2.00000
     17     -10.4508      2.00000
     18     -10.1182      2.00000
     19     -10.0795      2.00000
     20      -9.9494      2.00000
     21      -9.3508      2.00000
     22      -9.1081      2.00000
     23      -8.9412      2.00000
     24      -8.7890      2.00000
     25      -8.4037      2.00000
     26      -6.6568      2.00000
     27      -6.3098      2.00000
     28      -5.7059      2.00000
     29      -5.4951      2.00000
     30      -1.1266      0.00000
     31      -1.0468      0.00000
     32      -0.4658      0.00000
     33      -0.2554      0.00000
     34      -0.1852      0.00000
     35      -0.0445      0.00000
     36       0.0449      0.00000
     37       0.1010      0.00000
     38       0.1266      0.00000
     39       0.1396      0.00000
     40       0.1864      0.00000
     41       0.1917      0.00000

 k-point     3 :       0.2500   -0.2500    0.2500
  band No.  band energies     occupation 
      1     -26.2734      2.00000
      2     -25.4697      2.00000
      3     -23.5286      2.00000
      4     -22.5765      2.00000
      5     -19.6573      2.00000
      6     -18.2914      2.00000
      7     -17.3266      2.00000
      8     -16.0928      2.00000
      9     -14.9091      2.00000
     10     -13.8713      2.00000
     11     -13.1249      2.00000
     12     -12.4913      2.00000
     13     -11.6177      2.00000
     14     -11.4182      2.00000
     15     -11.0681      2.00000
     16     -10.6032      2.00000
     17     -10.4508      2.00000
     18     -10.1182      2.00000
     19     -10.0795      2.00000
     20      -9.9494      2.00000
     21      -9.3508      2.00000
     22      -9.1081      2.00000
     23      -8.9412      2.00000
     24      -8.7890      2.00000
     25      -8.4037      2.00000
     26      -6.6568      2.00000
     27      -6.3098      2.00000
     28      -5.7059      2.00000
     29      -5.4951      2.00000
     30      -1.1266      0.00000
     31      -1.0468      0.00000
     32      -0.4658      0.00000
     33      -0.2554      0.00000
     34      -0.1852      0.00000
     35      -0.0430      0.00000
     36       0.0370      0.00000
     37       0.1113      0.00000
     38       0.1247      0.00000
     39       0.1421      0.00000
     40       0.1839      0.00000
     41       0.1934      0.00000

 k-point     4 :      -0.2500   -0.2500    0.2500
  band No.  band energies     occupation 
      1     -26.2734      2.00000
      2     -25.4697      2.00000
      3     -23.5286      2.00000
      4     -22.5765      2.00000
      5     -19.6573      2.00000
      6     -18.2914      2.00000
      7     -17.3266      2.00000
      8     -16.0928      2.00000
      9     -14.9091      2.00000
     10     -13.8713      2.00000
     11     -13.1249      2.00000
     12     -12.4913      2.00000
     13     -11.6177      2.00000
     14     -11.4182      2.00000
     15     -11.0681      2.00000
     16     -10.6032      2.00000
     17     -10.4508      2.00000
     18     -10.1182      2.00000
     19     -10.0795      2.00000
     20      -9.9494      2.00000
     21      -9.3508      2.00000
     22      -9.1081      2.00000
     23      -8.9412      2.00000
     24      -8.7890      2.00000
     25      -8.4037      2.00000
     26      -6.6568      2.00000
     27      -6.3098      2.00000
     28      -5.7059      2.00000
     29      -5.4951      2.00000
     30      -1.1266      0.00000
     31      -1.0468      0.00000
     32      -0.4658      0.00000
     33      -0.2554      0.00000
     34      -0.1852      0.00000
     35      -0.0431      0.00000
     36       0.0374      0.00000
     37       0.1146      0.00000
     38       0.1278      0.00000
     39       0.1380      0.00000
     40       0.1725      0.00000
     41       0.1897      0.00000


--------------------------------------------------------------------------------------------------------


 soft charge-density along one line, spin component           1
         0         1         2         3         4         5         6         7         8         9
 total charge-density along one line
 
 pseudopotential strength for first ion, spin component:           1
 -2.352  -4.056   0.002   0.000  -0.001
 -4.056  -6.906   0.005   0.000  -0.003
  0.002   0.005  -0.332   0.000  -0.002
  0.000   0.000   0.000  -0.336   0.000
 -0.001  -0.003  -0.002   0.000  -0.335
 total augmentation occupancy for first ion, spin component:           1
  3.532  -0.636  -0.397  -0.019   0.196
 -0.636   0.129   0.073   0.004  -0.036
 -0.397   0.073   0.047   0.002  -0.019
 -0.019   0.004   0.002   0.009  -0.001
  0.196  -0.036  -0.019  -0.001   0.017


------------------------ aborting loop because EDIFF is reached ----------------------------------------


    CHARGE:  cpu time   16.4865: real time   16.4756
    FORLOC:  cpu time    5.8141: real time    5.8099
    FORNL :  cpu time   60.3708: real time   60.3294
    STRESS:  cpu time  183.8770: real time  183.7497
    FORCOR:  cpu time   23.7684: real time   23.7506
    FORHAR:  cpu time   10.5634: real time   10.5567
    MIXING:  cpu time    0.7689: real time    0.7685
    OFIELD:  cpu time    0.0000: real time    0.0000

  FORCE on cell =-STRESS in cart. coord.  units (eV):
  Direction    XX          YY          ZZ          XY          YZ          ZX
  --------------------------------------------------------------------------------------
  Alpha Z     0.51957     0.51957     0.51957
  Ewald    3345.95570  2394.61723   320.17981    81.56847    80.85361   598.15664
  Hartree  3774.48163  2862.36099  1427.19369    55.84562   128.00979   453.98212
  E(xc)    -229.38257  -229.38493  -232.36414     0.01776    -0.43521     0.74648
  Local   -7715.47658 -5836.54440 -2396.32752  -138.20293  -224.96847 -1036.53149
  n-local  -132.94789  -134.63549  -131.73733     0.58828     1.22898    -1.28944
  augment    14.49013    14.11559    14.88206    -0.01183     0.38516    -0.25250
  Kinetic   938.70747   925.54559   993.91229     0.36782    14.77329   -14.54314
  Fock        0.00000     0.00000     0.00000     0.00000     0.00000     0.00000
  -------------------------------------------------------------------------------------
  Total      -3.65255    -3.40585    -3.74157     0.17320    -0.15284     0.26867
  in kB      -0.21674    -0.20210    -0.22202     0.01028    -0.00907     0.01594
  external pressure =       -0.21 kB  Pullay stress =        0.00 kB


 VOLUME and BASIS-vectors are now :
 -----------------------------------------------------------------------------
  energy-cutoff  :      400.00
  volume of cell :    27000.00
      direct lattice vectors                 reciprocal lattice vectors
    30.000000000  0.000000000  0.000000000     0.033333333  0.000000000  0.000000000
     0.000000000 30.000000000  0.000000000     0.000000000  0.033333333  0.000000000
     0.000000000  0.000000000 30.000000000     0.000000000  0.000000000  0.033333333

  length of vectors
    30.000000000 30.000000000 30.000000000     0.033333333  0.033333333  0.033333333


 FORCES acting on ions
    electron-ion (+dipol)            ewald-force                    non-local-force                 convergence-correction
 -----------------------------------------------------------------------------------------------
   0.657E+02 -.562E+02 -.112E+01   -.682E+02 0.613E+02 0.136E+01   0.252E+01 -.508E+01 -.239E+00   0.559E-05 -.788E-05 0.207E-04
   0.511E+02 0.278E+02 0.620E+02   -.524E+02 -.301E+02 -.668E+02   0.132E+01 0.229E+01 0.479E+01   0.274E-05 -.560E-05 0.253E-04
   0.601E+02 0.370E+02 -.472E+02   -.621E+02 -.402E+02 0.512E+02   0.203E+01 0.314E+01 -.403E+01   0.112E-04 -.687E-05 0.180E-04
   0.637E+02 0.952E+02 -.611E+01   -.679E+02 -.101E+03 0.618E+01   0.417E+01 0.609E+01 0.216E-01   0.474E-05 -.316E-05 0.274E-04
   -.718E+00 0.826E+02 -.600E+02   0.125E+01 -.867E+02 0.639E+02   -.517E+00 0.414E+01 -.393E+01   -.118E-04 -.683E-05 0.144E-04
   -.714E+02 0.459E+02 0.272E+02   0.768E+02 -.473E+02 -.268E+02   -.544E+01 0.135E+01 -.479E+00   -.807E-06 -.179E-04 0.143E-04
   -.673E+01 -.179E+02 0.838E+02   0.621E+01 0.217E+02 -.879E+02   0.509E+00 -.376E+01 0.403E+01   -.518E-05 -.136E-04 0.117E-04
   0.209E+02 0.776E+02 0.416E+02   -.237E+02 -.821E+02 -.431E+02   0.270E+01 0.451E+01 0.150E+01   0.945E-05 0.326E-05 0.240E-04
   0.351E+02 -.616E+02 0.201E+02   -.412E+02 0.637E+02 -.223E+02   0.619E+01 -.213E+01 0.215E+01   -.169E-04 -.151E-04 0.275E-04
   -.828E+02 -.547E+01 -.258E+02   0.873E+02 0.256E+01 0.278E+02   -.456E+01 0.294E+01 -.194E+01   0.359E-05 -.436E-05 0.119E-04
   -.385E+02 -.536E+02 0.571E+02   0.398E+02 0.559E+02 -.619E+02   -.128E+01 -.225E+01 0.488E+01   -.173E-05 -.437E-05 0.721E-05
   -.768E+01 -.738E+02 -.467E+02   0.649E+01 0.779E+02 0.503E+02   0.117E+01 -.410E+01 -.357E+01   -.514E-05 -.221E-05 0.119E-04
   0.225E+03 0.959E+01 0.147E+02   -.226E+03 -.863E+01 -.145E+02   0.905E+00 -.971E+00 -.197E+00   0.441E-04 -.349E-04 0.842E-04
   0.171E+03 0.151E+02 0.740E+01   -.176E+03 -.153E+02 -.803E+01   0.497E+01 0.207E+00 0.600E+00   0.494E-04 -.697E-06 0.116E-03
   -.708E+01 0.145E+03 -.349E+02   0.123E+02 -.146E+03 0.357E+02   -.524E+01 0.128E+01 -.795E+00   -.469E-04 -.480E-04 0.104E-03
   -.602E+02 0.147E+03 0.174E+03   0.610E+02 -.147E+03 -.174E+03   -.728E+00 0.145E+00 0.575E+00   -.612E-04 -.970E-04 0.854E-04
   -.540E+01 0.219E+02 -.464E+02   0.282E+01 -.237E+02 0.460E+02   0.258E+01 0.175E+01 0.383E+00   -.141E-03 -.764E-05 0.283E-04
   -.155E+03 -.190E+03 -.186E+02   0.160E+03 0.192E+03 0.195E+02   -.451E+01 -.290E+01 -.857E+00   -.431E-04 -.110E-04 0.110E-04
   0.119E+03 0.170E+03 -.512E+02   -.115E+03 -.169E+03 0.552E+02   -.346E+01 -.109E+01 -.396E+01   0.623E-05 0.701E-05 0.210E-03
   -.242E+02 -.196E+03 0.156E+01   0.207E+02 0.200E+03 -.298E+01   0.346E+01 -.401E+01 0.140E+01   -.734E-04 -.593E-04 -.640E-04
   0.679E+02 -.378E+03 0.713E+02   -.532E+02 0.427E+03 -.775E+02   -.147E+02 -.486E+02 0.617E+01   0.374E-04 -.106E-03 0.119E-03
   -.368E+03 0.182E+03 -.208E+03   0.411E+03 -.205E+03 0.229E+03   -.432E+02 0.223E+02 -.207E+02   -.120E-03 -.549E-04 0.502E-04
 -----------------------------------------------------------------------------------------------
   0.510E+02 0.247E+02 0.142E+02   -.114E-12 0.171E-12 0.284E-13   -.511E+02 -.247E+02 -.142E+02   -.353E-03 -.497E-03 0.959E-03
 
 
 POSITION                                       TOTAL-FORCE (eV/Angst)
 -----------------------------------------------------------------------------------
     11.19931     16.08513     14.88304         0.000164     -0.008060      0.003159
     11.43755     14.63725     13.87149        -0.009402      0.001372     -0.006478
     11.30245     14.46534     15.63932         0.007289     -0.013177     -0.003645
     13.32323     13.33747     15.16697         0.003020      0.002629      0.099514
     15.40773     13.03326     15.97349         0.014014      0.001061     -0.007144
     16.89473     13.01617     13.96985        -0.022300     -0.029152     -0.023492
     15.72300     14.03513     13.08369        -0.010339      0.005241     -0.009311
     15.27434     12.37930     13.58926        -0.048774      0.017508     -0.005428
     15.33955     16.46646     15.12461         0.022851     -0.005581     -0.036928
     18.24365     16.53076     15.96679         0.008635      0.025935      0.029597
     17.61554     17.53193     14.62172         0.008696      0.033768      0.025073
     17.12768     17.89319     16.30248        -0.022877     -0.007419      0.025203
     11.68971     15.10708     14.83461        -0.000837     -0.009806     -0.003458
     13.19143     15.31604     14.93430         0.011517      0.017818     -0.025001
     15.34327     13.83886     15.22649         0.007078      0.003005     -0.004378
     15.83293     13.28234     13.87706        -0.017426      0.000862     -0.012169
     16.42571     14.83725     15.70818        -0.008589      0.017095     -0.015661
     17.37062     17.08360     15.59830         0.003529      0.012176      0.012697
     13.90001     14.17678     15.17256         0.003914     -0.006311      0.021988
     16.27168     16.15039     15.45348         0.027215     -0.012684     -0.013875
     13.67469     16.45497     14.80336        -0.000601     -0.034436     -0.072813
     17.45078     14.32376     16.18455         0.023223     -0.011845      0.022551
 -----------------------------------------------------------------------------------
    total drift:                               -0.009125      0.012945      0.005985


--------------------------------------------------------------------------------------------------------



  FREE ENERGIE OF THE ION-ELECTRON SYSTEM (eV)
  ---------------------------------------------------
  free  energy   TOTEN  =      -129.22962553 eV

  energy  without entropy=     -129.22962553  energy(sigma->0) =     -129.22962553
 
 d Force = 0.1586135E-03[ 0.158E-03, 0.159E-03]  d Energy = 0.1590124E-03-0.399E-06
 d Force = 0.5240855E-01[ 0.525E-01, 0.524E-01]  d Ewald  = 0.5240854E-01 0.327E-08


--------------------------------------------------------------------------------------------------------


    POTLOK:  cpu time   21.7417: real time   21.7265


--------------------------------------------------------------------------------------------------------


 NEB: the previous image is higher in energy: T
 NEB: the next image is higher in energy    : F
 NEB: only prev energy greater

 NEB: Tangent
 ----------------------------------------------
      0.01474     -0.02915      0.01376
     -0.04855     -0.01633     -0.01712
      0.03004     -0.04198     -0.01069
     -0.02276     -0.04943      0.17115
      0.04186     -0.15429     -0.19741
      0.03437      0.21183     -0.23482
     -0.00280      0.31288     -0.08712
      0.05957      0.19723     -0.32378
      0.01760     -0.04656     -0.01628
     -0.05128     -0.05217      0.29184
      0.05653     -0.02672      0.25633
     -0.07402     -0.05204      0.23041
      0.00154     -0.03527     -0.01907
      0.01226     -0.05502     -0.11103
      0.00546     -0.02935     -0.08052
      0.02208      0.18935     -0.18962
     -0.03195     -0.05118      0.08276
     -0.02290     -0.04152      0.23401
     -0.00813     -0.04807      0.04368
     -0.01810     -0.03731      0.13448
      0.04383     -0.07012     -0.30788
     -0.06396     -0.06611      0.14027

 NEB: forces: par spring, perp REAL, dneb     0.027746    0.167324    0.000000
 NEB: distance to prev, next image, angle between     1.141521    1.135971  166.993993
 NEB: projections on to tangent (spring, REAL)    -0.027746    0.077508

 stress matrix after NEB project (eV)
     -3.65255      0.17320      0.26867
      0.17320     -3.40585     -0.15284
      0.26867     -0.15284     -3.74157
  FORCES: max atom, RMS     0.082054    0.036161
  FORCE total and by dimension    0.169609    0.081499
  Stress total and by dimension    6.260299    3.741572
 OPT: skip step - force has converged


--------------------------------------------------------------------------------------------------------


  
 reached required accuracy - stopping structural energy minimisation
     LOOP+:  cpu time 1816.5358: real time 1816.6146
    4ORBIT:  cpu time    0.0000: real time    0.0000

 total amount of memory used by VASP on root node  4333707. kBytes
========================================================================

   base      :      30000. kBytes
   nonlr-proj:       2402. kBytes
   fftplans  :     924480. kBytes
   grid      :    2089440. kBytes
   one-center:         67. kBytes
   wavefun   :    1287318. kBytes
 
  
  
 General timing and accounting informations for this job:
 ========================================================
  
                  Total CPU time used (sec):   123732.289
                            User time (sec):   122967.311
                          System time (sec):      764.980
                         Elapsed time (sec):   123693.112
  
                   Maximum memory used (kb):     5883660.
                   Average memory used (kb):           0.
  
                          Minor page faults:    181353410
                          Major page faults:            7
                 Voluntary context switches:         7815
