 vasp.5.4.1 24Jun15 (build Jan 13 2020 12:58:22) complex                        
  
 POSCAR found type information on POSCAR  H  C  N  O 
 10/POSCAR found :  4 types and      22 ions
 scaLAPACK will be used
 LDA part: xc-table for Pade appr. of Perdew
 POSCAR found type information on POSCAR  H  C  N  O 
 00/POSCAR found :  4 types and      22 ions
 POSCAR found type information on POSCAR  H  C  N  O 
 16/POSCAR found :  4 types and      22 ions
 Jacobian:    50.2178792621697     
 POSCAR, INCAR and KPOINTS ok, starting setup
 WARNING: small aliasing (wrap around) errors must be expected
 FFT: planning ...
 WAVECAR not read
 entering main loop
       N       E                     dE             d eps       ncg     rms          rms(c)
DAV:   1     0.609231216765E+03    0.60923E+03   -0.79849E+03   392   0.485E+02
DAV:   2     0.265753589794E+03   -0.34348E+03   -0.33234E+03   587   0.917E+01
DAV:   3    -0.459780905404E+02   -0.31173E+03   -0.30293E+03   488   0.111E+02
DAV:   4    -0.136357440876E+03   -0.90379E+02   -0.90225E+02   395   0.810E+01
DAV:   5    -0.141491221357E+03   -0.51338E+01   -0.51223E+01   464   0.224E+01    0.195E+01
DAV:   6    -0.131323434572E+03    0.10168E+02   -0.23573E+01   419   0.198E+01    0.993E+00
DAV:   7    -0.129554803399E+03    0.17686E+01   -0.46249E+00   416   0.842E+00    0.512E+00
DAV:   8    -0.129066601198E+03    0.48820E+00   -0.85675E-01   432   0.405E+00    0.148E+00
DAV:   9    -0.128999495358E+03    0.67106E-01   -0.10071E-01   464   0.157E+00    0.564E-01
DAV:  10    -0.128987301039E+03    0.12194E-01   -0.24264E-02   413   0.814E-01    0.258E-01
DAV:  11    -0.128981606774E+03    0.56943E-02   -0.80674E-03   456   0.458E-01    0.161E-01
DAV:  12    -0.128981649510E+03   -0.42736E-04   -0.53706E-03   400   0.360E-01    0.981E-02
DAV:  13    -0.128987831187E+03   -0.61817E-02   -0.44513E-03   446   0.345E-01    0.577E-02
DAV:  14    -0.128994736428E+03   -0.69052E-02   -0.20302E-03   432   0.226E-01    0.384E-02
DAV:  15    -0.129002179987E+03   -0.74436E-02   -0.74931E-04   378   0.107E-01    0.242E-02
DAV:  16    -0.129007932572E+03   -0.57526E-02   -0.41380E-04   352   0.640E-02    0.135E-02
DAV:  17    -0.129011073408E+03   -0.31408E-02   -0.19120E-04   280   0.425E-02    0.858E-03
DAV:  18    -0.129013039407E+03   -0.19660E-02   -0.16845E-04   344   0.344E-02    0.538E-03
DAV:  19    -0.129013684358E+03   -0.64495E-03   -0.22703E-05   348   0.162E-02    0.296E-03
DAV:  20    -0.129014101604E+03   -0.41725E-03   -0.15968E-05   279   0.122E-02    0.211E-03
DAV:  21    -0.129014338075E+03   -0.23647E-03   -0.66122E-06   324   0.824E-03    0.106E-03
DAV:  22    -0.129014437276E+03   -0.99201E-04   -0.20948E-06   350   0.482E-03
   1 F= -.12901444E+03 E0= -.12901444E+03  d E =-.129014E+03
damped:  g(F)=  0.000E+00 g(S)=  0.000E+00 dE (1.order)= 0.000E+00
 bond charge predicted
       N       E                     dE             d eps       ncg     rms          rms(c)
DAV:   1    -0.129020882658E+03   -0.65446E-02   -0.11284E-01   374   0.180E+00    0.764E-02
DAV:   2    -0.129021038835E+03   -0.15618E-03   -0.23545E-03   464   0.233E-01    0.528E-02
DAV:   3    -0.129021019222E+03    0.19612E-04   -0.10473E-04   360   0.551E-02    0.273E-02
DAV:   4    -0.129021037113E+03   -0.17890E-04   -0.75456E-05   310   0.423E-02    0.790E-03
DAV:   5    -0.129021042838E+03   -0.57257E-05   -0.14696E-05   304   0.205E-02    0.405E-03
DAV:   6    -0.129021047417E+03   -0.45791E-05   -0.32810E-06   318   0.908E-03
   2 F= -.12902105E+03 E0= -.12902105E+03  d E =-.661014E-02
damped:  g(F)=  0.000E+00 g(S)=  0.000E+00 dE (1.order)= 0.000E+00
 bond charge predicted
       N       E                     dE             d eps       ncg     rms          rms(c)
DAV:   1    -0.129028154078E+03   -0.71112E-02   -0.29614E-01   333   0.291E+00    0.124E-01
DAV:   2    -0.129028538058E+03   -0.38398E-03   -0.61640E-03   429   0.374E-01    0.823E-02
DAV:   3    -0.129028486965E+03    0.51093E-04   -0.29695E-04   399   0.890E-02    0.431E-02
DAV:   4    -0.129028509150E+03   -0.22185E-04   -0.12133E-04   301   0.559E-02    0.129E-02
DAV:   5    -0.129028512624E+03   -0.34747E-05   -0.22949E-05   264   0.270E-02    0.599E-03
DAV:   6    -0.129028515020E+03   -0.23960E-05   -0.58319E-06   252   0.126E-02
   3 F= -.12902852E+03 E0= -.12902852E+03  d E =-.746760E-02
damped:  g(F)=  0.000E+00 g(S)=  0.000E+00 dE (1.order)= 0.000E+00
 bond charge predicted
       N       E                     dE             d eps       ncg     rms          rms(c)
DAV:   1    -0.129035833130E+03   -0.73205E-02   -0.40633E-01   330   0.335E+00    0.141E-01
DAV:   2    -0.129036330127E+03   -0.49700E-03   -0.79633E-03   419   0.414E-01    0.891E-02
DAV:   3    -0.129036305971E+03    0.24156E-04   -0.34339E-04   363   0.965E-02    0.473E-02
DAV:   4    -0.129036348767E+03   -0.42795E-04   -0.12084E-04   327   0.576E-02    0.140E-02
DAV:   5    -0.129036354346E+03   -0.55790E-05   -0.23864E-05   296   0.281E-02    0.633E-03
DAV:   6    -0.129036357360E+03   -0.30138E-05   -0.45007E-06   254   0.120E-02
   4 F= -.12903636E+03 E0= -.12903636E+03  d E =-.784234E-02
damped:  g(F)=  0.000E+00 g(S)=  0.000E+00 dE (1.order)= 0.000E+00
 bond charge predicted
       N       E                     dE             d eps       ncg     rms          rms(c)
DAV:   1    -0.129045989392E+03   -0.96350E-02   -0.59520E-01   328   0.400E+00    0.161E-01
DAV:   2    -0.129046693150E+03   -0.70376E-03   -0.10760E-02   396   0.477E-01    0.104E-01
DAV:   3    -0.129046688902E+03    0.42474E-05   -0.36274E-04   371   0.102E-01    0.569E-02
DAV:   4    -0.129046753550E+03   -0.64647E-04   -0.14501E-04   326   0.646E-02    0.128E-02
DAV:   5    -0.129046759824E+03   -0.62745E-05   -0.30286E-05   328   0.310E-02    0.662E-03
DAV:   6    -0.129046763335E+03   -0.35105E-05   -0.47241E-06   262   0.120E-02
   5 F= -.12904676E+03 E0= -.12904676E+03  d E =-.104060E-01
damped:  g(F)=  0.000E+00 g(S)=  0.000E+00 dE (1.order)= 0.000E+00
 bond charge predicted
       N       E                     dE             d eps       ncg     rms          rms(c)
DAV:   1    -0.129057175367E+03   -0.10416E-01   -0.88188E-01   328   0.487E+00    0.193E-01
DAV:   2    -0.129058257600E+03   -0.10822E-02   -0.15774E-02   428   0.582E-01    0.127E-01
DAV:   3    -0.129058234778E+03    0.22822E-04   -0.45303E-04   428   0.119E-01    0.706E-02
DAV:   4    -0.129058325265E+03   -0.90487E-04   -0.23904E-04   432   0.838E-02    0.138E-02
DAV:   5    -0.129058332505E+03   -0.72405E-05   -0.41017E-05   288   0.355E-02    0.821E-03
DAV:   6    -0.129058337544E+03   -0.50387E-05   -0.62787E-06   326   0.137E-02
   6 F= -.12905834E+03 E0= -.12905834E+03  d E =-.115742E-01
damped:  g(F)=  0.000E+00 g(S)=  0.000E+00 dE (1.order)= 0.000E+00
 bond charge predicted
       N       E                     dE             d eps       ncg     rms          rms(c)
DAV:   1    -0.129068188682E+03   -0.98562E-02   -0.11180E+00   328   0.549E+00    0.224E-01
DAV:   2    -0.129069606299E+03   -0.14176E-02   -0.20323E-02   428   0.662E-01    0.146E-01
DAV:   3    -0.129069549461E+03    0.56838E-04   -0.61909E-04   429   0.142E-01    0.820E-02
DAV:   4    -0.129069678610E+03   -0.12915E-03   -0.40559E-04   455   0.106E-01    0.189E-02
DAV:   5    -0.129069683875E+03   -0.52651E-05   -0.62910E-05   272   0.442E-02    0.112E-02
DAV:   6    -0.129069690338E+03   -0.64633E-05   -0.14558E-05   318   0.191E-02
   7 F= -.12906969E+03 E0= -.12906969E+03  d E =-.113528E-01
damped:  g(F)=  0.000E+00 g(S)=  0.000E+00 dE (1.order)= 0.000E+00
 bond charge predicted
       N       E                     dE             d eps       ncg     rms          rms(c)
DAV:   1    -0.129079285701E+03   -0.96018E-02   -0.15301E+00   328   0.639E+00    0.273E-01
DAV:   2    -0.129081168197E+03   -0.18825E-02   -0.27655E-02   396   0.770E-01    0.178E-01
DAV:   3    -0.129081087014E+03    0.81183E-04   -0.90440E-04   428   0.171E-01    0.984E-02
DAV:   4    -0.129081267182E+03   -0.18017E-03   -0.58564E-04   437   0.126E-01    0.228E-02
DAV:   5    -0.129081271231E+03   -0.40492E-05   -0.89910E-05   288   0.524E-02    0.136E-02
DAV:   6    -0.129081278972E+03   -0.77411E-05   -0.21350E-05   306   0.230E-02
   8 F= -.12908128E+03 E0= -.12908128E+03  d E =-.115886E-01
damped:  g(F)=  0.000E+00 g(S)=  0.000E+00 dE (1.order)= 0.000E+00
 bond charge predicted
       N       E                     dE             d eps       ncg     rms          rms(c)
DAV:   1    -0.129091725976E+03   -0.10455E-01   -0.18627E+00   328   0.698E+00    0.308E-01
DAV:   2    -0.129093872224E+03   -0.21462E-02   -0.32550E-02   396   0.822E-01    0.196E-01
DAV:   3    -0.129093849645E+03    0.22579E-04   -0.10572E-03   428   0.179E-01    0.105E-01
DAV:   4    -0.129094047741E+03   -0.19810E-03   -0.49055E-04   428   0.113E-01    0.211E-02
DAV:   5    -0.129094058306E+03   -0.10564E-04   -0.70286E-05   280   0.459E-02    0.117E-02
DAV:   6    -0.129094068307E+03   -0.10001E-04   -0.10477E-05   298   0.177E-02
   9 F= -.12909407E+03 E0= -.12909407E+03  d E =-.127893E-01
damped:  g(F)=  0.000E+00 g(S)=  0.000E+00 dE (1.order)= 0.000E+00
 bond charge predicted
       N       E                     dE             d eps       ncg     rms          rms(c)
DAV:   1    -0.129106310970E+03   -0.12253E-01   -0.23944E+00   329   0.787E+00    0.358E-01
DAV:   2    -0.129108900199E+03   -0.25892E-02   -0.40712E-02   396   0.920E-01    0.229E-01
DAV:   3    -0.129108865934E+03    0.34265E-04   -0.17192E-03   428   0.218E-01    0.117E-01
DAV:   4    -0.129109086890E+03   -0.22096E-03   -0.52258E-04   397   0.112E-01    0.275E-02
DAV:   5    -0.129109103292E+03   -0.16402E-04   -0.83127E-05   311   0.491E-02    0.127E-02
DAV:   6    -0.129109117907E+03   -0.14615E-04   -0.15616E-05   302   0.212E-02
  10 F= -.12910912E+03 E0= -.12910912E+03  d E =-.150496E-01
damped:  g(F)=  0.000E+00 g(S)=  0.000E+00 dE (1.order)= 0.000E+00
 bond charge predicted
       N       E                     dE             d eps       ncg     rms          rms(c)
DAV:   1    -0.129120201219E+03   -0.11098E-01   -0.33538E+00   328   0.929E+00    0.422E-01
DAV:   2    -0.129123871559E+03   -0.36703E-02   -0.56023E-02   396   0.108E+00    0.271E-01
DAV:   3    -0.129123775775E+03    0.95784E-04   -0.22778E-03   428   0.253E-01    0.137E-01
DAV:   4    -0.129124065078E+03   -0.28930E-03   -0.82615E-04   397   0.141E-01    0.314E-02
DAV:   5    -0.129124083204E+03   -0.18126E-04   -0.12858E-04   304   0.611E-02    0.159E-02
DAV:   6    -0.129124101763E+03   -0.18558E-04   -0.23757E-05   314   0.262E-02
  11 F= -.12912410E+03 E0= -.12912410E+03  d E =-.149839E-01
damped:  g(F)=  0.000E+00 g(S)=  0.000E+00 dE (1.order)= 0.000E+00
 bond charge predicted
       N       E                     dE             d eps       ncg     rms          rms(c)
DAV:   1    -0.129134941097E+03   -0.10858E-01   -0.49231E+00   328   0.113E+01    0.506E-01
DAV:   2    -0.129140448410E+03   -0.55073E-02   -0.82118E-02   396   0.132E+00    0.320E-01
DAV:   3    -0.129140306370E+03    0.14204E-03   -0.27009E-03   436   0.287E-01    0.168E-01
DAV:   4    -0.129140768937E+03   -0.46257E-03   -0.14406E-03   463   0.194E-01    0.346E-02
DAV:   5    -0.129140784141E+03   -0.15204E-04   -0.20032E-04   360   0.743E-02    0.204E-02
DAV:   6    -0.129140800248E+03   -0.16107E-04   -0.31151E-05   326   0.295E-02
  12 F= -.12914080E+03 E0= -.12914080E+03  d E =-.166985E-01
damped:  g(F)=  0.000E+00 g(S)=  0.000E+00 dE (1.order)= 0.000E+00
 bond charge predicted
       N       E                     dE             d eps       ncg     rms          rms(c)
DAV:   1    -0.129146520923E+03   -0.57368E-02   -0.69798E+00   328   0.134E+01    0.593E-01
DAV:   2    -0.129154717116E+03   -0.81962E-02   -0.11718E-01   396   0.156E+00    0.385E-01
DAV:   3    -0.129154354504E+03    0.36261E-03   -0.40220E-03   428   0.358E-01    0.207E-01
DAV:   4    -0.129155062211E+03   -0.70771E-03   -0.23245E-03   445   0.247E-01    0.472E-02
DAV:   5    -0.129155076018E+03   -0.13808E-04   -0.31803E-04   368   0.959E-02    0.274E-02
DAV:   6    -0.129155094254E+03   -0.18236E-04   -0.63451E-05   302   0.397E-02
  13 F= -.12915509E+03 E0= -.12915509E+03  d E =-.142940E-01
damped:  g(F)=  0.000E+00 g(S)=  0.000E+00 dE (1.order)= 0.000E+00
 bond charge predicted
       N       E                     dE             d eps       ncg     rms          rms(c)
DAV:   1    -0.129141979450E+03    0.13097E-01   -0.10753E+01   328   0.169E+01    0.745E-01
DAV:   2    -0.129158349376E+03   -0.16370E-01   -0.22373E-01   396   0.218E+00    0.461E-01
DAV:   3    -0.129157146564E+03    0.12028E-02   -0.63529E-03   447   0.433E-01    0.245E-01
DAV:   4    -0.129157841995E+03   -0.69543E-03   -0.30916E-03   461   0.299E-01    0.513E-02
DAV:   5    -0.129157933013E+03   -0.91018E-04   -0.47394E-04   464   0.110E-01    0.294E-02
DAV:   6    -0.129157961373E+03   -0.28360E-04   -0.35386E-05   366   0.328E-02
  14 F= -.12915796E+03 E0= -.12915796E+03  d E =-.286712E-02
damped:  g(F)=  0.000E+00 g(S)=  0.000E+00 dE (1.order)= 0.000E+00
 bond charge predicted
       N       E                     dE             d eps       ncg     rms          rms(c)
DAV:   1    -0.129167384115E+03   -0.94511E-02   -0.14842E+00   331   0.612E+00    0.397E-01
DAV:   2    -0.129171771100E+03   -0.43870E-02   -0.65633E-02   393   0.115E+00    0.237E-01
DAV:   3    -0.129171055910E+03    0.71519E-03   -0.21220E-03   399   0.259E-01    0.130E-01
DAV:   4    -0.129170786688E+03    0.26922E-03   -0.10802E-03   395   0.173E-01    0.328E-02
DAV:   5    -0.129170777832E+03    0.88559E-05   -0.21488E-04   432   0.724E-02    0.175E-02
DAV:   6    -0.129170792743E+03   -0.14910E-04   -0.18786E-05   368   0.231E-02
  15 F= -.12917079E+03 E0= -.12917079E+03  d E =-.128314E-01
damped:  g(F)=  0.000E+00 g(S)=  0.000E+00 dE (1.order)= 0.000E+00
 bond charge predicted
       N       E                     dE             d eps       ncg     rms          rms(c)
DAV:   1    -0.129171749350E+03   -0.97152E-03   -0.10337E-02   365   0.527E-01    0.342E-02
DAV:   2    -0.129171811683E+03   -0.62334E-04   -0.46638E-04   464   0.962E-02    0.197E-02
DAV:   3    -0.129171830855E+03   -0.19171E-04   -0.11771E-05   299   0.196E-02    0.116E-02
DAV:   4    -0.129171864885E+03   -0.34030E-04   -0.11244E-05   268   0.172E-02    0.231E-03
DAV:   5    -0.129171878895E+03   -0.14010E-04   -0.27788E-06   360   0.771E-03    0.122E-03
DAV:   6    -0.129171888003E+03   -0.91084E-05   -0.55193E-07   235   0.319E-03
  16 F= -.12917189E+03 E0= -.12917189E+03  d E =-.109526E-02
damped:  g(F)=  0.000E+00 g(S)=  0.000E+00 dE (1.order)= 0.000E+00
 bond charge predicted
       N       E                     dE             d eps       ncg     rms          rms(c)
DAV:   1    -0.129172825887E+03   -0.94699E-03   -0.30759E-02   361   0.916E-01    0.571E-02
DAV:   2    -0.129172927321E+03   -0.10143E-03   -0.14333E-03   397   0.169E-01    0.346E-02
DAV:   3    -0.129172919265E+03    0.80560E-05   -0.38079E-05   368   0.355E-02    0.208E-02
DAV:   4    -0.129172920198E+03   -0.93287E-06   -0.35910E-05   264   0.318E-02    0.458E-03
DAV:   5    -0.129172922264E+03   -0.20656E-05   -0.81515E-06   368   0.145E-02    0.248E-03
DAV:   6    -0.129172923533E+03   -0.12695E-05   -0.11443E-06   252   0.559E-03
  17 F= -.12917292E+03 E0= -.12917292E+03  d E =-.103553E-02
damped:  g(F)=  0.000E+00 g(S)=  0.000E+00 dE (1.order)= 0.000E+00
 bond charge predicted
       N       E                     dE             d eps       ncg     rms          rms(c)
DAV:   1    -0.129173137860E+03   -0.21560E-03   -0.37538E-02   363   0.102E+00    0.599E-02
DAV:   2    -0.129173237668E+03   -0.99807E-04   -0.16353E-03   422   0.181E-01    0.371E-02
DAV:   3    -0.129173219823E+03    0.17845E-04   -0.42595E-05   320   0.376E-02    0.222E-02
DAV:   4    -0.129173209825E+03    0.99983E-05   -0.41975E-05   300   0.342E-02    0.494E-03
DAV:   5    -0.129173209815E+03    0.95251E-08   -0.95050E-06   336   0.160E-02    0.281E-03
DAV:   6    -0.129173211006E+03   -0.11911E-05   -0.13300E-06   302   0.610E-03
  18 F= -.12917321E+03 E0= -.12917321E+03  d E =-.287473E-03
damped:  g(F)=  0.000E+00 g(S)=  0.000E+00 dE (1.order)= 0.000E+00
 bond charge predicted
       N       E                     dE             d eps       ncg     rms          rms(c)
DAV:   1    -0.129173284869E+03   -0.75054E-04   -0.14279E-04   366   0.630E-02    0.333E-03
DAV:   2    -0.129173287593E+03   -0.27239E-05   -0.61598E-06   272   0.132E-02    0.200E-03
DAV:   3    -0.129173289858E+03   -0.22653E-05   -0.67722E-07   244   0.439E-03    0.123E-03
DAV:   4    -0.129173293186E+03   -0.33280E-05   -0.18306E-07   308   0.229E-03    0.409E-04
DAV:   5    -0.129173295013E+03   -0.18269E-05   -0.36785E-08   270   0.111E-03    0.226E-04
DAV:   6    -0.129173296510E+03   -0.14975E-05   -0.11019E-08   242   0.698E-04
  19 F= -.12917330E+03 E0= -.12917330E+03  d E =-.855042E-04
damped:  g(F)=  0.000E+00 g(S)=  0.000E+00 dE (1.order)= 0.000E+00
 bond charge predicted
       N       E                     dE             d eps       ncg     rms          rms(c)
DAV:   1    -0.129173428062E+03   -0.13305E-03   -0.55277E-04   354   0.124E-01    0.664E-03
DAV:   2    -0.129173429753E+03   -0.16903E-05   -0.18862E-05   272   0.211E-02    0.390E-03
DAV:   3    -0.129173430545E+03   -0.79201E-06   -0.23969E-06   264   0.740E-03    0.213E-03
DAV:   4    -0.129173431398E+03   -0.85314E-06   -0.37005E-07   276   0.357E-03    0.646E-04
DAV:   5    -0.129173431959E+03   -0.56137E-06   -0.70330E-08   254   0.176E-03    0.263E-04
DAV:   6    -0.129173432307E+03   -0.34810E-06    0.19691E-08   252   0.824E-04
  20 F= -.12917343E+03 E0= -.12917343E+03  d E =-.135797E-03
damped:  g(F)=  0.000E+00 g(S)=  0.000E+00 dE (1.order)= 0.000E+00
 bond charge predicted
       N       E                     dE             d eps       ncg     rms          rms(c)
DAV:   1    -0.129173600274E+03   -0.16832E-03   -0.11269E-03   356   0.178E-01    0.929E-03
DAV:   2    -0.129173602104E+03   -0.18297E-05   -0.37634E-05   236   0.299E-02    0.552E-03
DAV:   3    -0.129173602202E+03   -0.98290E-07   -0.41378E-06   272   0.104E-02    0.302E-03
DAV:   4    -0.129173602129E+03    0.72981E-07   -0.11502E-06   200   0.571E-03    0.884E-04
DAV:   5    -0.129173602144E+03   -0.14293E-07   -0.27636E-07   272   0.299E-03    0.415E-04
DAV:   6    -0.129173602226E+03   -0.82685E-07   -0.30243E-08   236   0.148E-03
  21 F= -.12917360E+03 E0= -.12917360E+03  d E =-.169919E-03
damped:  g(F)=  0.000E+00 g(S)=  0.000E+00 dE (1.order)= 0.000E+00
 bond charge predicted
       N       E                     dE             d eps       ncg     rms          rms(c)
DAV:   1    -0.129173787298E+03   -0.18515E-03   -0.17406E-03   384   0.221E-01    0.111E-02
DAV:   2    -0.129173789890E+03   -0.25924E-05   -0.55765E-05   237   0.365E-02    0.664E-03
DAV:   3    -0.129173789870E+03    0.20395E-07   -0.61586E-06   272   0.127E-02    0.366E-03
DAV:   4    -0.129173789630E+03    0.23976E-06   -0.17380E-06   218   0.695E-03    0.107E-03
DAV:   5    -0.129173789628E+03    0.23792E-08   -0.45498E-07   256   0.364E-03    0.508E-04
DAV:   6    -0.129173789760E+03   -0.13253E-06   -0.91289E-08   216   0.182E-03
  22 F= -.12917379E+03 E0= -.12917379E+03  d E =-.187534E-03
damped:  g(F)=  0.000E+00 g(S)=  0.000E+00 dE (1.order)= 0.000E+00
 bond charge predicted
       N       E                     dE             d eps       ncg     rms          rms(c)
DAV:   1    -0.129173979252E+03   -0.18962E-03   -0.22668E-03   382   0.253E-01    0.120E-02
DAV:   2    -0.129173982959E+03   -0.37067E-05   -0.69892E-05   260   0.402E-02    0.723E-03
DAV:   3    -0.129173982824E+03    0.13487E-06   -0.52403E-06   208   0.113E-02    0.429E-03
DAV:   4    -0.129173982690E+03    0.13382E-06   -0.24076E-06   224   0.813E-03    0.102E-03
DAV:   5    -0.129173982797E+03   -0.10752E-06   -0.60807E-07   189   0.405E-03    0.607E-04
DAV:   6    -0.129173982979E+03   -0.18171E-06   -0.12971E-07   175   0.194E-03
  23 F= -.12917398E+03 E0= -.12917398E+03  d E =-.193219E-03
damped:  g(F)=  0.000E+00 g(S)=  0.000E+00 dE (1.order)= 0.000E+00
 bond charge predicted
       N       E                     dE             d eps       ncg     rms          rms(c)
DAV:   1    -0.129174176688E+03   -0.19389E-03   -0.26366E-03   373   0.272E-01    0.118E-02
DAV:   2    -0.129174180837E+03   -0.41492E-05   -0.72241E-05   268   0.410E-02    0.721E-03
DAV:   3    -0.129174180881E+03   -0.43805E-07   -0.53766E-06   164   0.114E-02    0.429E-03
DAV:   4    -0.129174181007E+03   -0.12641E-06   -0.23951E-06   188   0.811E-03    0.100E-03
DAV:   5    -0.129174181175E+03   -0.16762E-06   -0.63682E-07   166   0.406E-03    0.612E-04
DAV:   6    -0.129174181393E+03   -0.21777E-06   -0.14668E-07   199   0.195E-03
  24 F= -.12917418E+03 E0= -.12917418E+03  d E =-.198414E-03
damped:  g(F)=  0.000E+00 g(S)=  0.000E+00 dE (1.order)= 0.000E+00
 bond charge predicted
       N       E                     dE             d eps       ncg     rms          rms(c)
DAV:   1    -0.129174414581E+03   -0.23341E-03   -0.35703E-03   341   0.313E-01    0.123E-02
DAV:   2    -0.129174419792E+03   -0.52108E-05   -0.82442E-05   244   0.437E-02    0.753E-03
DAV:   3    -0.129174420150E+03   -0.35794E-06   -0.60663E-06   164   0.119E-02    0.446E-03
DAV:   4    -0.129174420688E+03   -0.53765E-06   -0.25529E-06   165   0.833E-03    0.988E-04
DAV:   5    -0.129174420898E+03   -0.21037E-06   -0.73710E-07   164   0.419E-03    0.637E-04
DAV:   6    -0.129174421117E+03   -0.21871E-06   -0.18771E-07   184   0.200E-03
  25 F= -.12917442E+03 E0= -.12917442E+03  d E =-.239724E-03
damped:  g(F)=  0.000E+00 g(S)=  0.000E+00 dE (1.order)= 0.000E+00
 bond charge predicted
       N       E                     dE             d eps       ncg     rms          rms(c)
DAV:   1    -0.129174724752E+03   -0.30385E-03   -0.49402E-03   330   0.363E-01    0.132E-02
DAV:   2    -0.129174731217E+03   -0.64653E-05   -0.96195E-05   233   0.466E-02    0.793E-03
DAV:   3    -0.129174732116E+03   -0.89846E-06   -0.70438E-06   164   0.124E-02    0.465E-03
DAV:   4    -0.129174733281E+03   -0.11648E-05   -0.27621E-06   200   0.844E-03    0.943E-04
DAV:   5    -0.129174733534E+03   -0.25355E-06   -0.87476E-07   165   0.425E-03    0.670E-04
DAV:   6    -0.129174733738E+03   -0.20338E-06   -0.24822E-07   199   0.201E-03
  26 F= -.12917473E+03 E0= -.12917473E+03  d E =-.312621E-03
damped:  g(F)=  0.000E+00 g(S)=  0.000E+00 dE (1.order)= 0.000E+00
 bond charge predicted
       N       E                     dE             d eps       ncg     rms          rms(c)
DAV:   1    -0.129175142207E+03   -0.40867E-03   -0.73282E-03   335   0.439E-01    0.157E-02
DAV:   2    -0.129175151271E+03   -0.90647E-05   -0.13372E-04   266   0.542E-02    0.930E-03
DAV:   3    -0.129175152870E+03   -0.15985E-05   -0.98682E-06   207   0.144E-02    0.547E-03
DAV:   4    -0.129175154930E+03   -0.20601E-05   -0.38714E-06   250   0.968E-03    0.109E-03
DAV:   5    -0.129175155205E+03   -0.27469E-06   -0.12735E-06   223   0.484E-03    0.817E-04
DAV:   6    -0.129175155381E+03   -0.17664E-06   -0.39821E-07   224   0.233E-03
  27 F= -.12917516E+03 E0= -.12917516E+03  d E =-.421644E-03
damped:  g(F)=  0.000E+00 g(S)=  0.000E+00 dE (1.order)= 0.000E+00
 bond charge predicted
       N       E                     dE             d eps       ncg     rms          rms(c)
DAV:   1    -0.129175685621E+03   -0.53042E-03   -0.11590E-02   334   0.556E-01    0.201E-02
DAV:   2    -0.129175701730E+03   -0.16109E-04   -0.23845E-04   347   0.705E-02    0.125E-02
DAV:   3    -0.129175702798E+03   -0.10676E-05   -0.93183E-06   272   0.161E-02    0.746E-03
DAV:   4    -0.129175705611E+03   -0.28133E-05   -0.54891E-06   204   0.126E-02    0.182E-03
DAV:   5    -0.129175705736E+03   -0.12522E-06   -0.13547E-06   272   0.627E-03    0.978E-04
DAV:   6    -0.129175705854E+03   -0.11741E-06   -0.23403E-07   206   0.255E-03
  28 F= -.12917571E+03 E0= -.12917571E+03  d E =-.550472E-03
damped:  g(F)=  0.000E+00 g(S)=  0.000E+00 dE (1.order)= 0.000E+00
 bond charge predicted
       N       E                     dE             d eps       ncg     rms          rms(c)
DAV:   1    -0.129176344510E+03   -0.63877E-03   -0.18580E-02   334   0.708E-01    0.261E-02
DAV:   2    -0.129176370594E+03   -0.26085E-04   -0.39929E-04   276   0.924E-02    0.166E-02
DAV:   3    -0.129176372002E+03   -0.14075E-05   -0.18023E-05   272   0.223E-02    0.101E-02
DAV:   4    -0.129176376150E+03   -0.41483E-05   -0.12305E-05   256   0.178E-02    0.301E-03
DAV:   5    -0.129176376150E+03   -0.12460E-09   -0.23136E-06   272   0.826E-03    0.172E-03
DAV:   6    -0.129176376356E+03   -0.20559E-06   -0.59981E-07   202   0.400E-03
  29 F= -.12917638E+03 E0= -.12917638E+03  d E =-.670502E-03
damped:  g(F)=  0.000E+00 g(S)=  0.000E+00 dE (1.order)= 0.000E+00
 bond charge predicted
       N       E                     dE             d eps       ncg     rms          rms(c)
DAV:   1    -0.129177106156E+03   -0.73001E-03   -0.28698E-02   334   0.879E-01    0.322E-02
DAV:   2    -0.129177148738E+03   -0.42582E-04   -0.63030E-04   332   0.114E-01    0.214E-02
DAV:   3    -0.129177148697E+03    0.41599E-07   -0.13336E-05   259   0.210E-02    0.132E-02
DAV:   4    -0.129177155519E+03   -0.68220E-05   -0.18938E-05   235   0.226E-02    0.386E-03
DAV:   5    -0.129177155531E+03   -0.12438E-07   -0.39039E-06   248   0.107E-02    0.229E-03
DAV:   6    -0.129177155828E+03   -0.29658E-06   -0.73436E-07   208   0.449E-03
  30 F= -.12917716E+03 E0= -.12917716E+03  d E =-.779472E-03
damped:  g(F)=  0.000E+00 g(S)=  0.000E+00 dE (1.order)= 0.000E+00
 bond charge predicted
       N       E                     dE             d eps       ncg     rms          rms(c)
DAV:   1    -0.129178015659E+03   -0.86013E-03   -0.42421E-02   333   0.106E+00    0.382E-02
DAV:   2    -0.129178075233E+03   -0.59573E-04   -0.87065E-04   331   0.133E-01    0.248E-02
DAV:   3    -0.129178077288E+03   -0.20553E-05   -0.17656E-05   242   0.237E-02    0.151E-02
DAV:   4    -0.129178087936E+03   -0.10648E-04   -0.20226E-05   202   0.250E-02    0.329E-03
DAV:   5    -0.129178088378E+03   -0.44168E-06   -0.54539E-06   234   0.115E-02    0.243E-03
DAV:   6    -0.129178088850E+03   -0.47243E-06   -0.12339E-06   213   0.496E-03
  31 F= -.12917809E+03 E0= -.12917809E+03  d E =-.933022E-03
damped:  g(F)=  0.000E+00 g(S)=  0.000E+00 dE (1.order)= 0.000E+00
 bond charge predicted
       N       E                     dE             d eps       ncg     rms          rms(c)
DAV:   1    -0.129179161047E+03   -0.10727E-02   -0.63048E-02   328   0.129E+00    0.463E-02
DAV:   2    -0.129179249262E+03   -0.88215E-04   -0.12632E-03   396   0.159E-01    0.290E-02
DAV:   3    -0.129179253204E+03   -0.39425E-05   -0.18144E-05   244   0.260E-02    0.172E-02
DAV:   4    -0.129179268159E+03   -0.14954E-04   -0.23794E-05   212   0.266E-02    0.337E-03
DAV:   5    -0.129179268955E+03   -0.79656E-06   -0.60635E-06   272   0.126E-02    0.219E-03
DAV:   6    -0.129179269426E+03   -0.47059E-06   -0.93221E-07   234   0.442E-03
  32 F= -.12917927E+03 E0= -.12917927E+03  d E =-.118058E-02
damped:  g(F)=  0.000E+00 g(S)=  0.000E+00 dE (1.order)= 0.000E+00
 bond charge predicted
       N       E                     dE             d eps       ncg     rms          rms(c)
DAV:   1    -0.129180546411E+03   -0.12775E-02   -0.96311E-02   332   0.160E+00    0.575E-02
DAV:   2    -0.129180683636E+03   -0.13723E-03   -0.19662E-03   396   0.200E-01    0.364E-02
DAV:   3    -0.129180687955E+03   -0.43188E-05   -0.29605E-05   254   0.327E-02    0.216E-02
DAV:   4    -0.129180708143E+03   -0.20188E-04   -0.39072E-05   322   0.330E-02    0.452E-03
DAV:   5    -0.129180708868E+03   -0.72521E-06   -0.76244E-06   272   0.150E-02    0.278E-03
DAV:   6    -0.129180709283E+03   -0.41413E-06   -0.97013E-07   248   0.512E-03
  33 F= -.12918071E+03 E0= -.12918071E+03  d E =-.143986E-02
damped:  g(F)=  0.000E+00 g(S)=  0.000E+00 dE (1.order)= 0.000E+00
 bond charge predicted
       N       E                     dE             d eps       ncg     rms          rms(c)
DAV:   1    -0.129182134113E+03   -0.14252E-02   -0.14378E-01   328   0.196E+00    0.701E-02
DAV:   2    -0.129182335880E+03   -0.20177E-03   -0.29057E-03   388   0.244E-01    0.447E-02
DAV:   3    -0.129182343410E+03   -0.75308E-05   -0.49673E-05   237   0.404E-02    0.266E-02
DAV:   4    -0.129182373135E+03   -0.29725E-04   -0.59194E-05   291   0.411E-02    0.552E-03
DAV:   5    -0.129182374185E+03   -0.10494E-05   -0.12110E-05   272   0.187E-02    0.351E-03
DAV:   6    -0.129182374880E+03   -0.69530E-06   -0.16615E-06   202   0.648E-03
  34 F= -.12918237E+03 E0= -.12918237E+03  d E =-.166560E-02
damped:  g(F)=  0.000E+00 g(S)=  0.000E+00 dE (1.order)= 0.000E+00
 bond charge predicted
       N       E                     dE             d eps       ncg     rms          rms(c)
DAV:   1    -0.129184044947E+03   -0.16708E-02   -0.20726E-01   328   0.235E+00    0.840E-02
DAV:   2    -0.129184330239E+03   -0.28529E-03   -0.40985E-03   379   0.288E-01    0.535E-02
DAV:   3    -0.129184344025E+03   -0.13786E-04   -0.75539E-05   308   0.479E-02    0.315E-02
DAV:   4    -0.129184390111E+03   -0.46086E-04   -0.63698E-05   268   0.453E-02    0.561E-03
DAV:   5    -0.129184391789E+03   -0.16780E-05   -0.14069E-05   248   0.202E-02    0.372E-03
DAV:   6    -0.129184392685E+03   -0.89625E-06   -0.17103E-06   218   0.685E-03
  35 F= -.12918439E+03 E0= -.12918439E+03  d E =-.201781E-02
damped:  g(F)=  0.000E+00 g(S)=  0.000E+00 dE (1.order)= 0.000E+00
 bond charge predicted
       N       E                     dE             d eps       ncg     rms          rms(c)
DAV:   1    -0.129186291353E+03   -0.18996E-02   -0.30392E-01   328   0.285E+00    0.103E-01
DAV:   2    -0.129186725979E+03   -0.43463E-03   -0.61732E-03   388   0.355E-01    0.665E-02
DAV:   3    -0.129186739475E+03   -0.13496E-04   -0.11650E-04   368   0.599E-02    0.396E-02
DAV:   4    -0.129186805225E+03   -0.65750E-04   -0.10234E-04   267   0.569E-02    0.755E-03
DAV:   5    -0.129186807124E+03   -0.18987E-05   -0.21752E-05   272   0.253E-02    0.474E-03
DAV:   6    -0.129186808329E+03   -0.12049E-05   -0.32039E-06   264   0.877E-03
  36 F= -.12918681E+03 E0= -.12918681E+03  d E =-.241564E-02
damped:  g(F)=  0.000E+00 g(S)=  0.000E+00 dE (1.order)= 0.000E+00
 bond charge predicted
       N       E                     dE             d eps       ncg     rms          rms(c)
DAV:   1    -0.129188888054E+03   -0.20809E-02   -0.44177E-01   328   0.344E+00    0.124E-01
DAV:   2    -0.129189509378E+03   -0.62132E-03   -0.87635E-03   364   0.424E-01    0.795E-02
DAV:   3    -0.129189542151E+03   -0.32773E-04   -0.21708E-04   332   0.737E-02    0.472E-02
DAV:   4    -0.129189638484E+03   -0.96333E-04   -0.14948E-04   300   0.699E-02    0.969E-03
DAV:   5    -0.129189640375E+03   -0.18916E-05   -0.33589E-05   264   0.311E-02    0.651E-03
DAV:   6    -0.129189642052E+03   -0.16770E-05   -0.59114E-06   218   0.124E-02
  37 F= -.12918964E+03 E0= -.12918964E+03  d E =-.283372E-02
damped:  g(F)=  0.000E+00 g(S)=  0.000E+00 dE (1.order)= 0.000E+00
 bond charge predicted
       N       E                     dE             d eps       ncg     rms          rms(c)
DAV:   1    -0.129191951533E+03   -0.23112E-02   -0.64214E-01   328   0.415E+00    0.150E-01
DAV:   2    -0.129192882248E+03   -0.93071E-03   -0.12880E-02   364   0.515E-01    0.956E-02
DAV:   3    -0.129192922168E+03   -0.39919E-04   -0.31281E-04   332   0.885E-02    0.566E-02
DAV:   4    -0.129193055816E+03   -0.13365E-03   -0.21099E-04   331   0.841E-02    0.107E-02
DAV:   5    -0.129193059626E+03   -0.38098E-05   -0.47585E-05   272   0.367E-02    0.778E-03
DAV:   6    -0.129193061769E+03   -0.21432E-05   -0.77292E-06   244   0.142E-02
  38 F= -.12919306E+03 E0= -.12919306E+03  d E =-.341972E-02
damped:  g(F)=  0.000E+00 g(S)=  0.000E+00 dE (1.order)= 0.000E+00
 bond charge predicted
       N       E                     dE             d eps       ncg     rms          rms(c)
DAV:   1    -0.129195508782E+03   -0.24492E-02   -0.91221E-01   328   0.494E+00    0.178E-01
DAV:   2    -0.129196848061E+03   -0.13393E-02   -0.18256E-02   364   0.612E-01    0.114E-01
DAV:   3    -0.129196901388E+03   -0.53327E-04   -0.44631E-04   364   0.104E-01    0.679E-02
DAV:   4    -0.129197074705E+03   -0.17332E-03   -0.28892E-04   396   0.954E-02    0.135E-02
DAV:   5    -0.129197079325E+03   -0.46208E-05   -0.53239E-05   269   0.390E-02    0.933E-03
DAV:   6    -0.129197082588E+03   -0.32621E-05   -0.90759E-06   208   0.156E-02
  39 F= -.12919708E+03 E0= -.12919708E+03  d E =-.402082E-02
damped:  g(F)=  0.000E+00 g(S)=  0.000E+00 dE (1.order)= 0.000E+00
 bond charge predicted
       N       E                     dE             d eps       ncg     rms          rms(c)
DAV:   1    -0.129199504836E+03   -0.24255E-02   -0.12906E+00   328   0.588E+00    0.213E-01
DAV:   2    -0.129201494625E+03   -0.19898E-02   -0.26393E-02   364   0.734E-01    0.138E-01
DAV:   3    -0.129201547077E+03   -0.52453E-04   -0.66023E-04   429   0.125E-01    0.830E-02
DAV:   4    -0.129201764858E+03   -0.21778E-03   -0.38311E-04   396   0.110E-01    0.163E-02
DAV:   5    -0.129201771927E+03   -0.70691E-05   -0.75841E-05   304   0.461E-02    0.110E-02
DAV:   6    -0.129201775781E+03   -0.38546E-05   -0.84491E-06   256   0.158E-02
  40 F= -.12920178E+03 E0= -.12920178E+03  d E =-.469319E-02
damped:  g(F)=  0.000E+00 g(S)=  0.000E+00 dE (1.order)= 0.000E+00
 bond charge predicted
       N       E                     dE             d eps       ncg     rms          rms(c)
DAV:   1    -0.129204027048E+03   -0.22551E-02   -0.18073E+00   328   0.694E+00    0.252E-01
DAV:   2    -0.129206894944E+03   -0.28679E-02   -0.37154E-02   372   0.868E-01    0.162E-01
DAV:   3    -0.129206952001E+03   -0.57056E-04   -0.88694E-04   388   0.145E-01    0.962E-02
DAV:   4    -0.129207211529E+03   -0.25953E-03   -0.50568E-04   428   0.128E-01    0.170E-02
DAV:   5    -0.129207222767E+03   -0.11238E-04   -0.97622E-05   304   0.514E-02    0.130E-02
DAV:   6    -0.129207227734E+03   -0.49668E-05   -0.11406E-05   266   0.183E-02
  41 F= -.12920723E+03 E0= -.12920723E+03  d E =-.545195E-02
damped:  g(F)=  0.000E+00 g(S)=  0.000E+00 dE (1.order)= 0.000E+00
 bond charge predicted
       N       E                     dE             d eps       ncg     rms          rms(c)
DAV:   1    -0.129209055431E+03   -0.18327E-02   -0.24639E+00   328   0.810E+00    0.294E-01
DAV:   2    -0.129213048935E+03   -0.39935E-02   -0.50956E-02   364   0.101E+00    0.192E-01
DAV:   3    -0.129213091906E+03   -0.42971E-04   -0.12470E-03   461   0.169E-01    0.115E-01
DAV:   4    -0.129213418432E+03   -0.32653E-03   -0.63821E-04   404   0.142E-01    0.206E-02
DAV:   5    -0.129213434764E+03   -0.16332E-04   -0.13358E-04   368   0.588E-02    0.152E-02
DAV:   6    -0.129213440436E+03   -0.56721E-05   -0.90306E-06   302   0.160E-02
  42 F= -.12921344E+03 E0= -.12921344E+03  d E =-.621270E-02
damped:  g(F)=  0.000E+00 g(S)=  0.000E+00 dE (1.order)= 0.000E+00
 bond charge predicted
       N       E                     dE             d eps       ncg     rms          rms(c)
DAV:   1    -0.129214010373E+03   -0.57561E-03   -0.33810E+00   328   0.947E+00    0.346E-01
DAV:   2    -0.129219651376E+03   -0.56410E-02   -0.71102E-02   364   0.120E+00    0.226E-01
DAV:   3    -0.129219673959E+03   -0.22583E-04   -0.16936E-03   437   0.198E-01    0.135E-01
DAV:   4    -0.129220011638E+03   -0.33768E-03   -0.89471E-04   428   0.172E-01    0.221E-02
DAV:   5    -0.129220037014E+03   -0.25376E-04   -0.19163E-04   432   0.685E-02    0.183E-02
DAV:   6    -0.129220044796E+03   -0.77821E-05   -0.10022E-05   236   0.179E-02
  43 F= -.12922004E+03 E0= -.12922004E+03  d E =-.660436E-02
damped:  g(F)=  0.000E+00 g(S)=  0.000E+00 dE (1.order)= 0.000E+00
 bond charge predicted
       N       E                     dE             d eps       ncg     rms          rms(c)
DAV:   1    -0.129216373598E+03    0.36634E-02   -0.45543E+00   328   0.111E+01    0.416E-01
DAV:   2    -0.129224783825E+03   -0.84102E-02   -0.10696E-01   362   0.147E+00    0.285E-01
DAV:   3    -0.129224529913E+03    0.25391E-03   -0.28572E-03   464   0.262E-01    0.176E-01
DAV:   4    -0.129224847635E+03   -0.31772E-03   -0.15309E-03   370   0.215E-01    0.329E-02
DAV:   5    -0.129224883629E+03   -0.35994E-04   -0.31496E-04   432   0.874E-02    0.233E-02
DAV:   6    -0.129224893667E+03   -0.10038E-04   -0.18164E-05   360   0.229E-02
  44 F= -.12922489E+03 E0= -.12922489E+03  d E =-.484887E-02
damped:  g(F)=  0.000E+00 g(S)=  0.000E+00 dE (1.order)= 0.000E+00
 bond charge predicted
       N       E                     dE             d eps       ncg     rms          rms(c)
DAV:   1    -0.129227794964E+03   -0.29113E-02   -0.17471E-01   330   0.226E+00    0.140E-01
DAV:   2    -0.129228365456E+03   -0.57049E-03   -0.81963E-03   394   0.428E-01    0.840E-02
DAV:   3    -0.129228288596E+03    0.76860E-04   -0.24216E-04   397   0.901E-02    0.494E-02
DAV:   4    -0.129228254726E+03    0.33870E-04   -0.17881E-04   297   0.728E-02    0.106E-02
DAV:   5    -0.129228257940E+03   -0.32141E-05   -0.38221E-05   368   0.320E-02    0.618E-03
DAV:   6    -0.129228261248E+03   -0.33075E-05   -0.44903E-06   288   0.114E-02
  45 F= -.12922826E+03 E0= -.12922826E+03  d E =-.336758E-02
damped:  g(F)=  0.000E+00 g(S)=  0.000E+00 dE (1.order)= 0.000E+00
 bond charge predicted
       N       E                     dE             d eps       ncg     rms          rms(c)
DAV:   1    -0.129225894988E+03    0.23630E-02   -0.18343E-01   330   0.232E+00    0.140E-01
DAV:   2    -0.129226443980E+03   -0.54899E-03   -0.87866E-03   428   0.444E-01    0.871E-02
DAV:   3    -0.129226318192E+03    0.12579E-03   -0.24327E-04   400   0.915E-02    0.524E-02
DAV:   4    -0.129226230473E+03    0.87720E-04   -0.21658E-04   360   0.803E-02    0.121E-02
DAV:   5    -0.129226227975E+03    0.24972E-05   -0.47680E-05   368   0.364E-02    0.715E-03
DAV:   6    -0.129226236333E+03   -0.83579E-05   -0.70284E-06   282   0.140E-02
  46 F= -.12922624E+03 E0= -.12922624E+03  d E =0.202491E-02
damped:  g(F)=  0.000E+00 g(S)=  0.000E+00 dE (1.order)= 0.000E+00
 bond charge predicted
       N       E                     dE             d eps       ncg     rms          rms(c)
DAV:   1    -0.129227240197E+03   -0.10122E-02   -0.81734E-03   365   0.491E-01    0.306E-02
DAV:   2    -0.129227282900E+03   -0.42703E-04   -0.38069E-04   432   0.924E-02    0.177E-02
DAV:   3    -0.129227291793E+03   -0.88928E-05   -0.13348E-05   232   0.210E-02    0.103E-02
DAV:   4    -0.129227308838E+03   -0.17045E-04   -0.90208E-06   299   0.159E-02    0.226E-03
DAV:   5    -0.129227316899E+03   -0.80620E-05   -0.22223E-06   368   0.747E-03    0.116E-03
DAV:   6    -0.129227321089E+03   -0.41895E-05   -0.38708E-07   220   0.300E-03
  47 F= -.12922732E+03 E0= -.12922732E+03  d E =-.108476E-02
damped:  g(F)=  0.000E+00 g(S)=  0.000E+00 dE (1.order)= 0.000E+00
 bond charge predicted
       N       E                     dE             d eps       ncg     rms          rms(c)
DAV:   1    -0.129228441691E+03   -0.11248E-02   -0.26044E-02   356   0.879E-01    0.534E-02
DAV:   2    -0.129228528252E+03   -0.86561E-04   -0.12645E-03   426   0.168E-01    0.325E-02
DAV:   3    -0.129228514184E+03    0.14068E-04   -0.33806E-05   368   0.343E-02    0.195E-02
DAV:   4    -0.129228505193E+03    0.89912E-05   -0.32445E-05   264   0.311E-02    0.426E-03
DAV:   5    -0.129228504890E+03    0.30306E-06   -0.75806E-06   368   0.144E-02    0.244E-03
DAV:   6    -0.129228505455E+03   -0.56524E-06   -0.11068E-06   224   0.558E-03
  48 F= -.12922851E+03 E0= -.12922851E+03  d E =-.118437E-02
damped:  g(F)=  0.000E+00 g(S)=  0.000E+00 dE (1.order)= 0.000E+00
 bond charge predicted
       N       E                     dE             d eps       ncg     rms          rms(c)
DAV:   1    -0.129228825004E+03   -0.32011E-03   -0.37867E-02   371   0.106E+00    0.639E-02
DAV:   2    -0.129228936917E+03   -0.11191E-03   -0.18171E-03   456   0.201E-01    0.390E-02
DAV:   3    -0.129228909062E+03    0.27855E-04   -0.48329E-05   304   0.411E-02    0.233E-02
DAV:   4    -0.129228888678E+03    0.20385E-04   -0.47482E-05   332   0.374E-02    0.517E-03
DAV:   5    -0.129228888438E+03    0.23924E-06   -0.11348E-05   336   0.179E-02    0.304E-03
DAV:   6    -0.129228890510E+03   -0.20718E-05   -0.16787E-06   264   0.692E-03
  49 F= -.12922889E+03 E0= -.12922889E+03  d E =-.385055E-03
damped:  g(F)=  0.000E+00 g(S)=  0.000E+00 dE (1.order)= 0.000E+00
 bond charge predicted
       N       E                     dE             d eps       ncg     rms          rms(c)
DAV:   1    -0.129228910488E+03   -0.22050E-04   -0.12906E-05   330   0.190E-02    0.132E-03
DAV:   2    -0.129228913562E+03   -0.30738E-05   -0.81201E-07   272   0.495E-03    0.819E-04
DAV:   3    -0.129228917319E+03   -0.37571E-05   -0.22571E-07   233   0.223E-03    0.531E-04
DAV:   4    -0.129228922217E+03   -0.48979E-05   -0.15615E-07   298   0.152E-03    0.266E-04
DAV:   5    -0.129228926009E+03   -0.37920E-05   -0.10352E-07   276   0.117E-03    0.207E-04
DAV:   6    -0.129228929866E+03   -0.38565E-05   -0.13408E-07   264   0.121E-03
  50 F= -.12922893E+03 E0= -.12922893E+03  d E =-.393554E-04
damped:  g(F)=  0.000E+00 g(S)=  0.000E+00 dE (1.order)= 0.000E+00
 bond charge predicted
       N       E                     dE             d eps       ncg     rms          rms(c)
DAV:   1    -0.129228959059E+03   -0.33050E-04   -0.49359E-05   356   0.384E-02    0.171E-03
DAV:   2    -0.129228959735E+03   -0.67523E-06   -0.28528E-06   272   0.948E-03    0.116E-03
DAV:   3    -0.129228960098E+03   -0.36381E-06   -0.26734E-07   238   0.290E-03    0.893E-04
DAV:   4    -0.129228960760E+03   -0.66216E-06   -0.59825E-08   202   0.181E-03    0.289E-04
DAV:   5    -0.129228961067E+03   -0.30642E-06    0.12048E-08   272   0.842E-04    0.174E-04
DAV:   6    -0.129228961323E+03   -0.25621E-06    0.30689E-08   200   0.500E-04
  51 F= -.12922896E+03 E0= -.12922896E+03  d E =-.314574E-04
damped:  g(F)=  0.000E+00 g(S)=  0.000E+00 dE (1.order)= 0.000E+00
 bond charge predicted
       N       E                     dE             d eps       ncg     rms          rms(c)
DAV:   1    -0.129228999980E+03   -0.38913E-04   -0.10265E-04   248   0.560E-02    0.242E-03
DAV:   2    -0.129229000685E+03   -0.70465E-06   -0.72392E-06   225   0.153E-02    0.166E-03
DAV:   3    -0.129229000830E+03   -0.14534E-06   -0.86319E-07   240   0.469E-03    0.132E-03
DAV:   4    -0.129229000949E+03   -0.11957E-06   -0.21332E-07   224   0.268E-03    0.457E-04
DAV:   5    -0.129229001020E+03   -0.70461E-07   -0.36526E-08   264   0.140E-03    0.280E-04
DAV:   6    -0.129229001079E+03   -0.59197E-07    0.27423E-08   204   0.863E-04
  52 F= -.12922900E+03 E0= -.12922900E+03  d E =-.397560E-04
damped:  g(F)=  0.000E+00 g(S)=  0.000E+00 dE (1.order)= 0.000E+00
 bond charge predicted
       N       E                     dE             d eps       ncg     rms          rms(c)
DAV:   1    -0.129229049050E+03   -0.48030E-04   -0.17224E-04   312   0.713E-02    0.313E-03
DAV:   2    -0.129229049568E+03   -0.51793E-06   -0.80687E-06   237   0.156E-02    0.214E-03
DAV:   3    -0.129229049574E+03   -0.62073E-08   -0.82825E-07   224   0.504E-03    0.151E-03
DAV:   4    -0.129229049517E+03    0.56533E-07   -0.21798E-07   234   0.301E-03    0.439E-04
DAV:   5    -0.129229049521E+03   -0.41246E-08   -0.44294E-09   176   0.144E-03    0.256E-04
DAV:   6    -0.129229049558E+03   -0.36572E-07    0.44050E-08   214   0.823E-04
  53 F= -.12922905E+03 E0= -.12922905E+03  d E =-.484788E-04
damped:  g(F)=  0.000E+00 g(S)=  0.000E+00 dE (1.order)= 0.000E+00
 bond charge predicted
       N       E                     dE             d eps       ncg     rms          rms(c)
DAV:   1    -0.129229104985E+03   -0.55463E-04   -0.24016E-04   280   0.840E-02    0.359E-03
DAV:   2    -0.129229105695E+03   -0.71011E-06   -0.10848E-05   210   0.181E-02    0.244E-03
DAV:   3    -0.129229105705E+03   -0.97771E-08   -0.11224E-06   170   0.584E-03    0.172E-03
DAV:   4    -0.129229105633E+03    0.71478E-07   -0.30283E-07   260   0.345E-03    0.504E-04
DAV:   5    -0.129229105638E+03   -0.43729E-08   -0.26298E-08   164   0.165E-03    0.293E-04
DAV:   6    -0.129229105684E+03   -0.45999E-07    0.35289E-08   168   0.947E-04
  54 F= -.12922911E+03 E0= -.12922911E+03  d E =-.561256E-04
damped:  g(F)=  0.000E+00 g(S)=  0.000E+00 dE (1.order)= 0.000E+00
 bond charge predicted
       N       E                     dE             d eps       ncg     rms          rms(c)
DAV:   1    -0.129229167915E+03   -0.62278E-04   -0.30704E-04   298   0.940E-02    0.395E-03
DAV:   2    -0.129229168532E+03   -0.61638E-06   -0.10199E-05   202   0.164E-02    0.269E-03
DAV:   3    -0.129229168526E+03    0.56316E-08   -0.10660E-06   164   0.555E-03    0.178E-03
DAV:   4    -0.129229168478E+03    0.48427E-07   -0.30026E-07   202   0.334E-03    0.497E-04
DAV:   5    -0.129229168498E+03   -0.20153E-07   -0.26893E-08   164   0.165E-03    0.283E-04
DAV:   6    -0.129229168560E+03   -0.62088E-07    0.32618E-08   168   0.936E-04
  55 F= -.12922917E+03 E0= -.12922917E+03  d E =-.628765E-04
damped:  g(F)=  0.000E+00 g(S)=  0.000E+00 dE (1.order)= 0.000E+00
 bond charge predicted
       N       E                     dE             d eps       ncg     rms          rms(c)
DAV:   1    -0.129229245154E+03   -0.76656E-04   -0.45139E-04   295   0.113E-01    0.462E-03
DAV:   2    -0.129229246030E+03   -0.87597E-06   -0.13459E-05   200   0.188E-02    0.310E-03
DAV:   3    -0.129229246058E+03   -0.28484E-07   -0.14164E-06   164   0.637E-03    0.201E-03
DAV:   4    -0.129229246040E+03    0.17767E-07   -0.39897E-07   164   0.374E-03    0.540E-04
DAV:   5    -0.129229246069E+03   -0.28579E-07   -0.56829E-08   164   0.186E-03    0.313E-04
DAV:   6    -0.129229246139E+03   -0.70026E-07    0.21124E-08   167   0.103E-03
  56 F= -.12922925E+03 E0= -.12922925E+03  d E =-.775790E-04
damped:  g(F)=  0.000E+00 g(S)=  0.000E+00 dE (1.order)= 0.000E+00
 bond charge predicted
       N       E                     dE             d eps       ncg     rms          rms(c)
DAV:   1    -0.129229341968E+03   -0.95899E-04   -0.65825E-04   327   0.135E-01    0.557E-03
DAV:   2    -0.129229342868E+03   -0.89942E-06   -0.14084E-05   200   0.184E-02    0.359E-03
DAV:   3    -0.129229342909E+03   -0.41636E-07   -0.14052E-06   164   0.616E-03    0.206E-03
DAV:   4    -0.129229342952E+03   -0.42816E-07   -0.39115E-07   164   0.348E-03    0.502E-04
DAV:   5    -0.129229342996E+03   -0.43473E-07   -0.64564E-08   164   0.175E-03    0.266E-04
DAV:   6    -0.129229343065E+03   -0.69624E-07    0.20008E-08   166   0.908E-04
  57 F= -.12922934E+03 E0= -.12922934E+03  d E =-.969261E-04
damped:  g(F)=  0.000E+00 g(S)=  0.000E+00 dE (1.order)= 0.000E+00
 bond charge predicted
       N       E                     dE             d eps       ncg     rms          rms(c)
DAV:   1    -0.129229464854E+03   -0.12186E-03   -0.97226E-04   329   0.162E-01    0.648E-03
DAV:   2    -0.129229466102E+03   -0.12479E-05   -0.18013E-05   200   0.205E-02    0.408E-03
DAV:   3    -0.129229466242E+03   -0.14070E-06   -0.17646E-06   164   0.686E-03    0.223E-03
DAV:   4    -0.129229466386E+03   -0.14396E-06   -0.47947E-07   164   0.370E-03    0.489E-04
DAV:   5    -0.129229466448E+03   -0.61909E-07   -0.98864E-08   164   0.186E-03    0.276E-04
DAV:   6    -0.129229466515E+03   -0.66509E-07    0.93513E-09   200   0.922E-04
  58 F= -.12922947E+03 E0= -.12922947E+03  d E =-.123450E-03
damped:  g(F)=  0.000E+00 g(S)=  0.000E+00 dE (1.order)= 0.000E+00
 bond charge predicted
       N       E                     dE             d eps       ncg     rms          rms(c)
DAV:   1    -0.129229622985E+03   -0.15654E-03   -0.14981E-03   339   0.200E-01    0.792E-03
DAV:   2    -0.129229624851E+03   -0.18654E-05   -0.25713E-05   208   0.244E-02    0.490E-03
DAV:   3    -0.129229625131E+03   -0.28034E-06   -0.25347E-06   202   0.822E-03    0.251E-03
DAV:   4    -0.129229625391E+03   -0.26019E-06   -0.69528E-07   209   0.425E-03    0.496E-04
DAV:   5    -0.129229625469E+03   -0.77642E-07   -0.16851E-07   175   0.210E-03    0.286E-04
DAV:   6    -0.129229625527E+03   -0.58273E-07   -0.15654E-08   199   0.103E-03
  59 F= -.12922963E+03 E0= -.12922963E+03  d E =-.159012E-03
damped:  g(F)=  0.000E+00 g(S)=  0.000E+00 dE (1.order)= 0.000E+00
 reached required accuracy - stopping structural energy minimisation
