unknown system                          
           1
    30.000000    0.000000    0.000000
     0.000000   30.000000    0.000000
     0.000000    0.000000   30.000000
   H    C    N    O 
  12   6   2   2
Direct configuration=     1
   0.37351717  0.53653754  0.49741980
   0.38080176  0.48807706  0.46348335
   0.37970442  0.48289372  0.52250034
   0.44473522  0.44609541  0.49442512
   0.51035237  0.43290569  0.53180017
   0.56678209  0.44087251  0.46633331
   0.52339531  0.46897142  0.43693075
   0.51702059  0.41180440  0.45275603
   0.50770155  0.54807036  0.51073321
   0.60605577  0.54748920  0.53012183
   0.58245965  0.57749515  0.48457862
   0.57419639  0.59760663  0.53966920
   0.39029844  0.50436219  0.49486557
   0.44009791  0.51194126  0.49737316
   0.51098820  0.46069797  0.50759179
   0.53054906  0.44430449  0.46302030
   0.54588879  0.49378731  0.52635271
   0.57728909  0.56726180  0.51948077
   0.46357722  0.47328790  0.50188068
   0.53890835  0.53802131  0.52234845
   0.45564794  0.55036462  0.49675083
   0.58132258  0.47662463  0.53912652
Direct configuration=     2
   0.37344844  0.53661591  0.49738581
   0.38077657  0.48807698  0.46342605
   0.37961434  0.48285847  0.52253752
   0.44468597  0.44602409  0.49457735
   0.51042197  0.43300959  0.53170922
   0.56680541  0.44080645  0.46634947
   0.52340865  0.46895717  0.43688303
   0.51693729  0.41183651  0.45278450
   0.50781812  0.54813060  0.51071179
   0.60619525  0.54758444  0.53019789
   0.58246388  0.57753151  0.48454617
   0.57413756  0.59757142  0.53977523
   0.39029255  0.50433576  0.49485479
   0.44013732  0.51189630  0.49738223
   0.51098955  0.46077530  0.50773122
   0.53052819  0.44427868  0.46295099
   0.54588942  0.49371371  0.52626867
   0.57729853  0.56729480  0.51944287
   0.46360367  0.47324273  0.50183700
   0.53898151  0.53795415  0.52226542
   0.45555785  0.55037278  0.49674944
   0.58129799  0.47660490  0.53917571
Direct configuration=     3
   0.37337886  0.53667839  0.49733190
   0.38074332  0.48808049  0.46335414
   0.37948869  0.48282291  0.52256784
   0.44462739  0.44592763  0.49480774
   0.51052214  0.43310831  0.53163334
   0.56681146  0.44070621  0.46636489
   0.52342551  0.46893934  0.43680943
   0.51680088  0.41185936  0.45282186
   0.50798610  0.54821318  0.51067737
   0.60636118  0.54775170  0.53028826
   0.58247269  0.57759254  0.48449749
   0.57404609  0.59751216  0.53991750
   0.39024971  0.50432250  0.49485235
   0.44015087  0.51184020  0.49739307
   0.51099138  0.46087348  0.50778000
   0.53053078  0.44427362  0.46292512
   0.54591192  0.49365640  0.52618225
   0.57735742  0.56730956  0.51942316
   0.46363386  0.47319209  0.50179028
   0.53908536  0.53787812  0.52213019
   0.45544620  0.55037560  0.49675158
   0.58126848  0.47655803  0.53924243
Direct configuration=     4
   0.37332629  0.53669906  0.49726042
   0.38070696  0.48809312  0.46328694
   0.37933708  0.48280102  0.52257260
   0.44457530  0.44582062  0.49511047
   0.51064599  0.43317971  0.53159629
   0.56679416  0.44057438  0.46637619
   0.52344930  0.46891266  0.43672080
   0.51661922  0.41187605  0.45286991
   0.50818564  0.54831025  0.51062498
   0.60653608  0.54798525  0.53037955
   0.58249012  0.57767794  0.48445137
   0.57392539  0.59742255  0.54007453
   0.39016084  0.50431863  0.49485821
   0.44011057  0.51179111  0.49740449
   0.51099903  0.46095791  0.50768213
   0.53055056  0.44429325  0.46294958
   0.54596344  0.49363946  0.52611760
   0.57746721  0.56731119  0.51942915
   0.46364596  0.47315102  0.50174924
   0.53923033  0.53781929  0.52194780
   0.45533313  0.55035833  0.49675996
   0.58123803  0.47647833  0.53931974
Direct configuration=     5
   0.37329132  0.53667874  0.49717592
   0.38066979  0.48811923  0.46324084
   0.37916193  0.48279959  0.52254312
   0.44453930  0.44571389  0.49548240
   0.51078780  0.43323849  0.53158440
   0.56676202  0.44041177  0.46638476
   0.52348890  0.46886586  0.43663242
   0.51640883  0.41191019  0.45293613
   0.50839924  0.54841536  0.51054754
   0.60672922  0.54826386  0.53046941
   0.58252377  0.57778712  0.48443732
   0.57378015  0.59729997  0.54022958
   0.39003731  0.50430270  0.49486172
   0.44000460  0.51175545  0.49741813
   0.51102072  0.46099438  0.50748133
   0.53055541  0.44431463  0.46297408
   0.54603961  0.49365449  0.52607645
   0.57760243  0.56733242  0.51944237
   0.46361677  0.47313106  0.50171388
   0.53943116  0.53779818  0.52172929
   0.45523437  0.55031322  0.49677604
   0.58120647  0.47636960  0.53940447
Direct configuration=     6
   0.37326003  0.53663797  0.49708429
   0.38062895  0.48815542  0.46321795
   0.37895894  0.48281364  0.52248495
   0.44451558  0.44560948  0.49591863
   0.51094029  0.43331530  0.53156169
   0.56672219  0.44021911  0.46639185
   0.52355270  0.46879349  0.43655179
   0.51618579  0.41198142  0.45302209
   0.50862077  0.54851955  0.51044042
   0.60695929  0.54856136  0.53055999
   0.58258614  0.57792491  0.48447760
   0.57361588  0.59715789  0.54037630
   0.38990522  0.50425849  0.49484904
   0.43984691  0.51172210  0.49743764
   0.51105624  0.46098080  0.50729268
   0.53052041  0.44430287  0.46293025
   0.54612399  0.49367151  0.52603798
   0.57773689  0.56740507  0.51943964
   0.46354367  0.47313398  0.50168232
   0.53967986  0.53781581  0.52148750
   0.45515900  0.55024516  0.49679900
   0.58117298  0.47624376  0.53949755
Direct configuration=     7
   0.37320977  0.53659416  0.49698056
   0.38056985  0.48818940  0.46319677
   0.37869371  0.48282949  0.52240621
   0.44448459  0.44548946  0.49646627
   0.51110910  0.43343003  0.53149863
   0.56665756  0.43997268  0.46639228
   0.52365146  0.46869850  0.43645623
   0.51592483  0.41208265  0.45312058
   0.50888203  0.54861978  0.51028703
   0.60725691  0.54889754  0.53065684
   0.58270795  0.57812968  0.48457710
   0.57341756  0.59701935  0.54053698
   0.38977384  0.50419281  0.49481466
   0.43966234  0.51167301  0.49747043
   0.51109181  0.46096957  0.50719930
   0.53045596  0.44423421  0.46278798
   0.54621259  0.49366746  0.52596563
   0.57789141  0.56753536  0.51942223
   0.46344908  0.47314284  0.50165934
   0.53996113  0.53784256  0.52120375
   0.45509856  0.55015306  0.49682958
   0.58113046  0.47610404  0.53961222
Direct configuration=     8
   0.37312267  0.53656188  0.49686718
   0.38047682  0.48819194  0.46313539
   0.37835056  0.48282657  0.52232310
   0.44442260  0.44534425  0.49713262
   0.51127875  0.43354594  0.53140873
   0.56654170  0.43966271  0.46636866
   0.52378044  0.46861382  0.43630247
   0.51559353  0.41213778  0.45318665
   0.50919244  0.54870006  0.51007702
   0.60760177  0.54928016  0.53074737
   0.58292549  0.57844923  0.48469953
   0.57318582  0.59694550  0.54073105
   0.38965047  0.50414633  0.49477257
   0.43952588  0.51160351  0.49752211
   0.51109899  0.46106265  0.50718821
   0.53041229  0.44414492  0.46264221
   0.54630805  0.49364911  0.52583471
   0.57809466  0.56766459  0.51943893
   0.46339101  0.47311425  0.50167215
   0.54023152  0.53781256  0.52087798
   0.45503754  0.55003798  0.49686395
   0.58107048  0.47597012  0.53974734
Direct configuration=     9
   0.37299140  0.53655286  0.49674629
   0.38034853  0.48814949  0.46301820
   0.37793229  0.48280271  0.52223061
   0.44432859  0.44518187  0.49792282
   0.51143385  0.43362393  0.53132378
   0.56639412  0.43927495  0.46630778
   0.52393917  0.46855327  0.43607080
   0.51517007  0.41209453  0.45318346
   0.50953297  0.54874791  0.50979133
   0.60797693  0.54969951  0.53083078
   0.58326838  0.57891984  0.48482792
   0.57293114  0.59696150  0.54095960
   0.38952186  0.50412050  0.49473462
   0.43948155  0.51148271  0.49759716
   0.51107936  0.46125810  0.50713781
   0.53035398  0.44410459  0.46260946
   0.54641357  0.49362804  0.52566596
   0.57831349  0.56776375  0.51953123
   0.46338127  0.47302571  0.50175441
   0.54053014  0.53773329  0.52051083
   0.45497956  0.54992629  0.49689482
   0.58099234  0.47585851  0.53988945
Direct configuration=    10
   0.37282760  0.53656858  0.49661851
   0.38020865  0.48808498  0.46289600
   0.37745480  0.48277823  0.52209642
   0.44422974  0.44502310  0.49885515
   0.51156607  0.43371325  0.53121442
   0.56625290  0.43879139  0.46621431
   0.52414796  0.46846863  0.43581816
   0.51469475  0.41206462  0.45312931
   0.50988996  0.54874408  0.50940304
   0.60838742  0.55011915  0.53093479
   0.58375341  0.57954578  0.48505844
   0.57267549  0.59702154  0.54119408
   0.38937881  0.50404932  0.49467569
   0.43947997  0.51132540  0.49769603
   0.51107589  0.46133304  0.50702916
   0.53012549  0.44407118  0.46259221
   0.54652927  0.49361833  0.52551470
   0.57847874  0.56794893  0.51964485
   0.46334710  0.47290947  0.50193618
   0.54091407  0.53772258  0.52007802
   0.45495575  0.54979980  0.49691147
   0.58092196  0.47576024  0.54002733
Direct configuration=    11
   0.37269753  0.53652912  0.49647703
   0.38009321  0.48802568  0.46281654
   0.37695126  0.48276217  0.52190623
   0.44413155  0.44486897  0.49991954
   0.51168253  0.43380964  0.53109483
   0.56595239  0.43823129  0.46609527
   0.52439065  0.46831976  0.43562209
   0.51419797  0.41216713  0.45305643
   0.51028247  0.54868286  0.50891039
   0.60872479  0.55056423  0.53106082
   0.58435368  0.58030328  0.48546462
   0.57243708  0.59708867  0.54143127
   0.38922096  0.50397257  0.49458042
   0.43936339  0.51122059  0.49780292
   0.51109305  0.46123174  0.50693142
   0.52988693  0.44389850  0.46239743
   0.54667719  0.49367476  0.52540175
   0.57873633  0.56827725  0.51972470
   0.46326033  0.47280222  0.50224258
   0.54127505  0.53778481  0.51953828
   0.45499622  0.54958370  0.49690295
   0.58089264  0.47566005  0.54015974
Direct configuration=    12
   0.37262601  0.53641038  0.49630820
   0.38002679  0.48796381  0.46273586
   0.37646447  0.48275420  0.52165934
   0.44400380  0.44471330  0.50110744
   0.51180691  0.43373419  0.53111062
   0.56546450  0.43756382  0.46595317
   0.52461366  0.46814414  0.43545469
   0.51356780  0.41222213  0.45288557
   0.51061363  0.54862299  0.50825879
   0.60891997  0.55104131  0.53123127
   0.58506804  0.58123834  0.48590093
   0.57223741  0.59719315  0.54172231
   0.38904975  0.50395623  0.49452181
   0.43913703  0.51098930  0.49793275
   0.51113428  0.46129928  0.50674601
   0.52978588  0.44370234  0.46219574
   0.54686317  0.49370518  0.52524301
   0.57903621  0.56860412  0.51986401
   0.46310494  0.47271823  0.50268875
   0.54177834  0.53785245  0.51890686
   0.45510917  0.54937857  0.49683617
   0.58088724  0.47564819  0.54027266
Direct configuration=    13
   0.37252268  0.53642802  0.49612247
   0.38003073  0.48792500  0.46265010
   0.37600087  0.48272150  0.52142871
   0.44386413  0.44454456  0.50239261
   0.51197057  0.43377287  0.53101831
   0.56525321  0.43672007  0.46584770
   0.52481103  0.46799805  0.43524295
   0.51281624  0.41222780  0.45262455
   0.51106741  0.54854548  0.50751911
   0.60916601  0.55144117  0.53154466
   0.58585505  0.58230237  0.48632128
   0.57208441  0.59730852  0.54210855
   0.38892035  0.50379082  0.49444152
   0.43919087  0.51114793  0.49808548
   0.51114767  0.46124096  0.50683005
   0.52924511  0.44356394  0.46207768
   0.54705761  0.49390349  0.52491382
   0.57917081  0.56899475  0.51995846
   0.46295855  0.47254058  0.50319975
   0.54213163  0.53788436  0.51810275
   0.45504033  0.54879259  0.49668723
   0.58099609  0.47565645  0.54041655
Direct configuration=    14
   0.37252848  0.53641494  0.49611742
   0.38004592  0.48792005  0.46262849
   0.37600921  0.48270502  0.52144880
   0.44385009  0.44454221  0.50240362
   0.51199216  0.43376393  0.53103772
   0.56518032  0.43671302  0.46584243
   0.52479192  0.46801499  0.43523704
   0.51278441  0.41222510  0.45261561
   0.51106414  0.54855777  0.50749398
   0.60913339  0.55144302  0.53155685
   0.58585061  0.58230816  0.48632637
   0.57208019  0.59729991  0.54212741
   0.38893663  0.50384717  0.49444831
   0.43904485  0.51074275  0.49809911
   0.51111949  0.46127003  0.50681645
   0.52932855  0.44353422  0.46211640
   0.54712991  0.49379805  0.52494087
   0.57918594  0.56898011  0.51995162
   0.46298570  0.47258037  0.50322240
   0.54215204  0.53793155  0.51807523
   0.45517673  0.54912819  0.49665415
   0.58093079  0.47573052  0.54037390
Direct configuration=    15
   0.37253077  0.53641561  0.49611656
   0.38004941  0.48792025  0.46262610
   0.37601085  0.48270295  0.52145095
   0.44385139  0.44454300  0.50240693
   0.51199550  0.43376417  0.53104042
   0.56517284  0.43670913  0.46584318
   0.52478889  0.46801528  0.43523947
   0.51277852  0.41222606  0.45261463
   0.51105989  0.54856100  0.50748701
   0.60912833  0.55144236  0.53156022
   0.58585040  0.58231015  0.48632694
   0.57208002  0.59729702  0.54213085
   0.38893676  0.50384747  0.49444946
   0.43906031  0.51077426  0.49809806
   0.51111898  0.46127248  0.50681727
   0.52933118  0.44353112  0.46211862
   0.54712266  0.49380645  0.52493429
   0.57918693  0.56897999  0.51995039
   0.46298694  0.47257112  0.50322738
   0.54215850  0.53792652  0.51807101
   0.45516369  0.54910217  0.49664983
   0.58093872  0.47573250  0.54037460
Direct configuration=    16
   0.37253519  0.53641698  0.49611484
   0.38005663  0.48792077  0.46262144
   0.37601434  0.48269889  0.52145521
   0.44385345  0.44454412  0.50241353
   0.51200245  0.43376494  0.53104597
   0.56515842  0.43670097  0.46584487
   0.52478283  0.46801552  0.43524456
   0.51276656  0.41222793  0.45261291
   0.51105272  0.54856718  0.50747330
   0.60911831  0.55144094  0.53156688
   0.58584992  0.58231418  0.48632794
   0.57207968  0.59729108  0.54213760
   0.38893742  0.50384818  0.49445174
   0.43908719  0.51082721  0.49809631
   0.51111791  0.46127681  0.50681917
   0.52933567  0.44352503  0.46212299
   0.54711065  0.49382098  0.52492226
   0.57918890  0.56897983  0.51994793
   0.46298966  0.47255508  0.50323735
   0.54216963  0.53791820  0.51806154
   0.45514142  0.54905843  0.49664089
   0.58095260  0.47573768  0.54037489
Direct configuration=    17
   0.37254158  0.53641925  0.49611214
   0.38006854  0.48792192  0.46261459
   0.37602033  0.48269284  0.52146171
   0.44385524  0.44454470  0.50242385
   0.51201396  0.43376692  0.53105484
   0.56513758  0.43668726  0.46584794
   0.52477341  0.46801511  0.43525315
   0.51274753  0.41223087  0.45261077
   0.51104519  0.54857605  0.50745260
   0.60910315  0.55143839  0.53157721
   0.58584918  0.58232065  0.48632915
   0.57207907  0.59728146  0.54214789
   0.38893973  0.50384956  0.49445514
   0.43911788  0.51088107  0.49809466
   0.51111621  0.46128191  0.50682273
   0.52934022  0.44351603  0.46212946
   0.54709880  0.49383678  0.52490667
   0.57919183  0.56897986  0.51994417
   0.46299434  0.47253732  0.50325288
   0.54218187  0.53791035  0.51804404
   0.45511727  0.54901324  0.49662604
   0.58096876  0.47574914  0.54037241
Direct configuration=    18
   0.37254191  0.53641944  0.49611196
   0.38006954  0.48792210  0.46261426
   0.37602090  0.48269252  0.52146209
   0.44385503  0.44454447  0.50242460
   0.51201493  0.43376726  0.53105550
   0.56513663  0.43668605  0.46584826
   0.52477278  0.46801489  0.43525391
   0.51274611  0.41223110  0.45261075
   0.51104560  0.54857646  0.50745133
   0.60910225  0.55143810  0.53157793
   0.58584916  0.58232117  0.48632916
   0.57207899  0.59728071  0.54214856
   0.38894022  0.50384967  0.49445533
   0.43911712  0.51087754  0.49809482
   0.51111613  0.46128181  0.50682314
   0.52933978  0.44351557  0.46212980
   0.54709962  0.49383622  0.52490634
   0.57919194  0.56897995  0.51994395
   0.46299474  0.47253791  0.50325395
   0.54218142  0.53791110  0.51804215
   0.45511829  0.54901590  0.49662474
   0.58096855  0.47575076  0.54037153
Direct configuration=    19
   0.37254258  0.53641982  0.49611159
   0.38007153  0.48792246  0.46261359
   0.37602204  0.48269186  0.52146285
   0.44385464  0.44454402  0.50242608
   0.51201688  0.43376794  0.53105682
   0.56513474  0.43668360  0.46584892
   0.52477151  0.46801444  0.43525543
   0.51274328  0.41223153  0.45261073
   0.51104638  0.54857728  0.50744876
   0.60910047  0.55143753  0.53157936
   0.58584912  0.58232220  0.48632917
   0.57207886  0.59727920  0.54214989
   0.38894120  0.50384989  0.49445571
   0.43911573  0.51087072  0.49809515
   0.51111599  0.46128162  0.50682396
   0.52933890  0.44351466  0.46213049
   0.54710120  0.49383518  0.52490564
   0.57919213  0.56898013  0.51994348
   0.46299553  0.47253905  0.50325609
   0.54218056  0.53791255  0.51803838
   0.45512024  0.54902100  0.49662216
   0.58096821  0.47575397  0.54036978
Direct configuration=    20
   0.37254361  0.53642040  0.49611103
   0.38007453  0.48792300  0.46261260
   0.37602374  0.48269088  0.52146398
   0.44385410  0.44454339  0.50242831
   0.51201979  0.43376897  0.53105884
   0.56513189  0.43667989  0.46584993
   0.52476961  0.46801375  0.43525774
   0.51273899  0.41223216  0.45261073
   0.51104748  0.54857856  0.50744486
   0.60909779  0.55143665  0.53158149
   0.58584906  0.58232376  0.48632915
   0.57207865  0.59727693  0.54215188
   0.38894265  0.50385019  0.49445628
   0.43911390  0.51086121  0.49809562
   0.51111581  0.46128134  0.50682520
   0.52933752  0.44351326  0.46213156
   0.54710340  0.49383384  0.52490448
   0.57919240  0.56898040  0.51994275
   0.46299669  0.47254059  0.50325933
   0.54217937  0.53791462  0.51803273
   0.45512290  0.54902807  0.49661830
   0.58096786  0.47575873  0.54036721
Direct configuration=    21
   0.37254503  0.53642116  0.49611029
   0.38007857  0.48792373  0.46261129
   0.37602602  0.48268959  0.52146547
   0.44385347  0.44454262  0.50243132
   0.51202367  0.43377037  0.53106159
   0.56512808  0.43667486  0.46585132
   0.52476705  0.46801278  0.43526084
   0.51273320  0.41223297  0.45261077
   0.51104880  0.54858031  0.50743956
   0.60909422  0.55143545  0.53158432
   0.58584901  0.58232588  0.48632910
   0.57207839  0.59727391  0.54215453
   0.38894455  0.50385050  0.49445705
   0.43911196  0.51084992  0.49809621
   0.51111563  0.46128098  0.50682689
   0.52933559  0.44351137  0.46213302
   0.54710601  0.49383247  0.52490274
   0.57919268  0.56898079  0.51994173
   0.46299818  0.47254233  0.50326370
   0.54217797  0.53791715  0.51802520
   0.45512598  0.54903642  0.49661316
   0.58096769  0.47576496  0.54036387
Direct configuration=    22
   0.37254690  0.53642211  0.49610937
   0.38008369  0.48792466  0.46260969
   0.37602889  0.48268797  0.52146731
   0.44385282  0.44454178  0.50243514
   0.51202855  0.43377213  0.53106512
   0.56512330  0.43666845  0.46585311
   0.52476382  0.46801154  0.43526478
   0.51272585  0.41223396  0.45261087
   0.51105023  0.54858260  0.50743275
   0.60908975  0.55143391  0.53158785
   0.58584898  0.58232859  0.48632902
   0.57207805  0.59727011  0.54215785
   0.38894687  0.50385076  0.49445801
   0.43911033  0.51083802  0.49809687
   0.51111551  0.46128056  0.50682902
   0.52933300  0.44350896  0.46213493
   0.54710879  0.49383142  0.52490022
   0.57919293  0.56898129  0.51994038
   0.46299996  0.47254398  0.50326925
   0.54217652  0.53791996  0.51801583
   0.45512910  0.54904511  0.49660673
   0.58096798  0.47577255  0.54035985
Direct configuration=    23
   0.37254925  0.53642322  0.49610826
   0.38008987  0.48792580  0.46260783
   0.37603234  0.48268607  0.52146945
   0.44385225  0.44454094  0.50243979
   0.51203439  0.43377425  0.53106945
   0.56511757  0.43666062  0.46585532
   0.52475993  0.46801001  0.43526953
   0.51271692  0.41223509  0.45261106
   0.51105163  0.54858546  0.50742438
   0.60908442  0.55143200  0.53159206
   0.58584901  0.58233193  0.48632889
   0.57207764  0.59726555  0.54216183
   0.38894955  0.50385087  0.49445918
   0.43910944  0.51082693  0.49809755
   0.51111553  0.46128008  0.50683161
   0.52932968  0.44350602  0.46213730
   0.54711141  0.49383110  0.52489675
   0.57919306  0.56898191  0.51993869
   0.46300196  0.47254524  0.50327601
   0.54217521  0.53792280  0.51800468
   0.45513181  0.54905306  0.49659902
   0.58096899  0.47578134  0.54035526
Direct configuration=    24
   0.37255245  0.53642460  0.49610685
   0.38009789  0.48792730  0.46260551
   0.37603679  0.48268366  0.52147210
   0.44385180  0.44454008  0.50244588
   0.51204191  0.43377697  0.53107517
   0.56511022  0.43665038  0.46585824
   0.52475492  0.46800801  0.43527570
   0.51270526  0.41223649  0.45261136
   0.51105298  0.54858929  0.50741331
   0.60907761  0.55142945  0.53159746
   0.58584916  0.58233635  0.48632871
   0.57207708  0.59725969  0.54216698
   0.38895287  0.50385074  0.49446067
   0.43910980  0.51081709  0.49809826
   0.51111578  0.46127951  0.50683496
   0.52932509  0.44350220  0.46214045
   0.54711378  0.49383202  0.52489168
   0.57919301  0.56898274  0.51993643
   0.46300434  0.47254585  0.50328484
   0.54217411  0.53792573  0.51799047
   0.45513387  0.54905982  0.49658911
   0.58097123  0.47579219  0.54034971
Direct configuration=    25
   0.37255671  0.53642624  0.49610509
   0.38010808  0.48792922  0.46260273
   0.37604241  0.48268069  0.52147530
   0.44385162  0.44453929  0.50245370
   0.51205137  0.43378039  0.53108255
   0.56510098  0.43663725  0.46586198
   0.52474859  0.46800549  0.43528350
   0.51269034  0.41223817  0.45261181
   0.51105410  0.54859431  0.50739897
   0.60906912  0.55142611  0.53160423
   0.58584953  0.58234209  0.48632848
   0.57207632  0.59725234  0.54217349
   0.38895687  0.50385023  0.49446254
   0.43911211  0.51081029  0.49809893
   0.51111639  0.46127882  0.50683921
   0.52931891  0.44349733  0.46214454
   0.54711559  0.49383484  0.52488452
   0.57919263  0.56898381  0.51993350
   0.46300707  0.47254535  0.50329615
   0.54217348  0.53792851  0.51797278
   0.45513469  0.54906390  0.49657661
   0.58097520  0.47580527  0.54034313
Direct configuration=    26
   0.37256231  0.53642810  0.49610294
   0.38012082  0.48793165  0.46259949
   0.37604941  0.48267711  0.52147903
   0.44385183  0.44453864  0.50246364
   0.51206311  0.43378460  0.53109194
   0.56508956  0.43662068  0.46586669
   0.52474074  0.46800242  0.43529320
   0.51267152  0.41224016  0.45261245
   0.51105482  0.54860075  0.50738068
   0.60905872  0.55142180  0.53161260
   0.58585025  0.58234947  0.48632826
   0.57207525  0.59724326  0.54218164
   0.38896163  0.50384917  0.49446484
   0.43911703  0.51080823  0.49809951
   0.51111755  0.46127799  0.50684450
   0.52931073  0.44349126  0.46214973
   0.54711644  0.49384026  0.52487476
   0.57919176  0.56898516  0.51992979
   0.46301009  0.47254332  0.50331042
   0.54217352  0.53793095  0.51795104
   0.45513375  0.54906389  0.49656105
   0.58098140  0.47582084  0.54033544
Direct configuration=    27
   0.37256961  0.53643009  0.49610036
   0.38013663  0.48793469  0.46259577
   0.37605808  0.48267284  0.52148330
   0.44385257  0.44453816  0.50247623
   0.51207763  0.43378971  0.53110379
   0.56507553  0.43659993  0.46587250
   0.52473110  0.46799877  0.43530512
   0.51264790  0.41224250  0.45261328
   0.51105502  0.54860888  0.50735751
   0.60904608  0.55141625  0.53162287
   0.58585156  0.58235894  0.48632813
   0.57207370  0.59723215  0.54219181
   0.38896729  0.50384742  0.49446762
   0.43912499  0.51081196  0.49809995
   0.51111942  0.46127695  0.50685103
   0.52930002  0.44348375  0.46215627
   0.54711626  0.49384882  0.52486187
   0.57919023  0.56898681  0.51992524
   0.46301337  0.47253954  0.50332834
   0.54217434  0.53793302  0.51792445
   0.45513083  0.54905882  0.49654172
   0.58099021  0.47583937  0.54032638
Direct configuration=    28
   0.37257909  0.53643204  0.49609728
   0.38015625  0.48793847  0.46259158
   0.37606882  0.48266779  0.52148808
   0.44385390  0.44453779  0.50249225
   0.51209565  0.43379590  0.53111876
   0.56505829  0.43657398  0.46587957
   0.52471930  0.46799459  0.43531970
   0.51261818  0.41224524  0.45261431
   0.51105476  0.54861902  0.50732821
   0.60903076  0.55140912  0.53163543
   0.58585383  0.58237113  0.48632829
   0.57207135  0.59721858  0.54220455
   0.38897414  0.50384490  0.49447094
   0.43913590  0.51082079  0.49810026
   0.51112220  0.46127559  0.50685907
   0.52928614  0.44347452  0.46216443
   0.54711544  0.49386071  0.52484533
   0.57918784  0.56898879  0.51991977
   0.46301690  0.47253418  0.50335089
   0.54217578  0.53793508  0.51789172
   0.45512633  0.54904894  0.49651755
   0.58100174  0.47586181  0.54031541
Direct configuration=    29
   0.37259133  0.53643364  0.49609364
   0.38018061  0.48794310  0.46258693
   0.37608217  0.48266182  0.52149328
   0.44385576  0.44453730  0.50251277
   0.51211816  0.43380335  0.53113765
   0.56503701  0.43654149  0.46588799
   0.52470492  0.46798998  0.43533742
   0.51258065  0.41224845  0.45261553
   0.51105433  0.54863143  0.50729120
   0.60901219  0.55139994  0.53165077
   0.58585764  0.58238690  0.48632908
   0.57206772  0.59720205  0.54222061
   0.38898268  0.50384160  0.49447488
   0.43914846  0.51083126  0.49810050
   0.51112604  0.46127374  0.50686900
   0.52926839  0.44346323  0.46217454
   0.54711509  0.49387532  0.52482493
   0.57918433  0.56899120  0.51991336
   0.46302078  0.47252823  0.50337941
   0.54217721  0.53793812  0.51785108
   0.45512185  0.54903670  0.49648703
   0.58101554  0.47588963  0.54030156
Direct configuration=    30
   0.37260687  0.53643444  0.49608944
   0.38021055  0.48794863  0.46258187
   0.37609865  0.48265484  0.52149873
   0.44385796  0.44453633  0.50253895
   0.51214619  0.43381226  0.53116132
   0.56501076  0.43650116  0.46589777
   0.52468761  0.46798514  0.43535869
   0.51253352  0.41225217  0.45261693
   0.51105432  0.54864624  0.50724493
   0.60898982  0.55138827  0.53166921
   0.58586373  0.58240723  0.48633104
   0.57206216  0.59718210  0.54224069
   0.38899357  0.50383776  0.49447946
   0.43916023  0.51083668  0.49810091
   0.51113093  0.46127120  0.50688122
   0.52924607  0.44344939  0.46218674
   0.54711705  0.49389116  0.52480078
   0.57917974  0.56899405  0.51990610
   0.46302519  0.47252349  0.50341533
   0.54217750  0.53794369  0.51780065
   0.45512026  0.54902708  0.49644850
   0.58103050  0.47592455  0.54028368
Direct configuration=    31
   0.37262622  0.53643397  0.49608471
   0.38024682  0.48795503  0.46257643
   0.37611866  0.48264676  0.52150417
   0.44386040  0.44453460  0.50257207
   0.51218072  0.43382284  0.53119061
   0.56497852  0.43645167  0.46590875
   0.52466713  0.46798033  0.43538388
   0.51247492  0.41225644  0.45261858
   0.51105521  0.54866350  0.50718772
   0.60896311  0.55137371  0.53169083
   0.58587310  0.58243319  0.48633487
   0.57205384  0.59715839  0.54226548
   0.38900746  0.50383366  0.49448465
   0.43916893  0.51083054  0.49810164
   0.51113679  0.46126788  0.50689617
   0.52921861  0.44343249  0.46220115
   0.54712283  0.49390693  0.52477292
   0.57917423  0.56899747  0.51989826
   0.46303027  0.47252173  0.50346012
   0.54217558  0.53795325  0.51773865
   0.45512446  0.54902477  0.49640033
   0.58104574  0.47596801  0.54026068
Direct configuration=    32
   0.37265016  0.53643177  0.49607958
   0.38029035  0.48796217  0.46257064
   0.37614263  0.48263742  0.52150920
   0.44386341  0.44453217  0.50261408
   0.51222296  0.43383553  0.53122686
   0.56493866  0.43639098  0.46592084
   0.52464321  0.46797566  0.43541364
   0.51240210  0.41226124  0.45262081
   0.51105680  0.54868348  0.50711688
   0.60893131  0.55135571  0.53171555
   0.58588723  0.58246645  0.48634162
   0.57204160  0.59713050  0.54229577
   0.38902512  0.50382928  0.49449040
   0.43917472  0.51081157  0.49810268
   0.51114371  0.46126382  0.50691464
   0.52918484  0.44341168  0.46221775
   0.54713231  0.49392332  0.52474013
   0.57916787  0.56900181  0.51988996
   0.46303618  0.47252332  0.50351598
   0.54217114  0.53796728  0.51766292
   0.45513558  0.54903000  0.49634046
   0.58106213  0.47602112  0.54023195
Direct configuration=    33
   0.37267971  0.53642752  0.49607424
   0.38034227  0.48796976  0.46256448
   0.37617089  0.48262660  0.52151322
   0.44386813  0.44452979  0.50266780
   0.51227433  0.43385113  0.53127210
   0.56488875  0.43631594  0.46593404
   0.52461559  0.46797079  0.43544905
   0.51231108  0.41226634  0.45262451
   0.51105766  0.54870682  0.50702822
   0.60889347  0.55133358  0.53174277
   0.58590838  0.58250950  0.48635271
   0.57202382  0.59709790  0.54233234
   0.38904732  0.50382389  0.49449655
   0.43918211  0.51079023  0.49810360
   0.51115191  0.46125944  0.50693790
   0.52914291  0.44338533  0.46223678
   0.54714273  0.49394447  0.52469925
   0.57916061  0.56900788  0.51988106
   0.46304296  0.47252580  0.50358585
   0.54216557  0.53798428  0.51757128
   0.45515119  0.54903413  0.49626670
   0.58108318  0.47608408  0.54019750
Direct configuration=    34
   0.37271550  0.53642131  0.49606900
   0.38040316  0.48797720  0.46255775
   0.37620322  0.48261403  0.52151556
   0.44387611  0.44452864  0.50273581
   0.51233559  0.43387098  0.53132857
   0.56482642  0.43622299  0.46594863
   0.52458439  0.46796436  0.43549121
   0.51219793  0.41227093  0.45263155
   0.51105568  0.54873398  0.50691767
   0.60884913  0.55130686  0.53177068
   0.58593897  0.58256497  0.48636923
   0.57199889  0.59706049  0.54237505
   0.38907461  0.50381655  0.49450297
   0.43919859  0.51078399  0.49810387
   0.51116159  0.46125543  0.50696745
   0.52909115  0.44335240  0.46225853
   0.54715048  0.49397570  0.52464696
   0.57915234  0.56901685  0.51987098
   0.46305075  0.47252480  0.50367230
   0.54216144  0.53800167  0.51746233
   0.45516641  0.54902329  0.49617801
   0.58111295  0.47615647  0.54015732
Direct configuration=    35
   0.37275775  0.53641318  0.49606436
   0.38047324  0.48798347  0.46254992
   0.37623964  0.48259896  0.52151544
   0.44388790  0.44452884  0.50282257
   0.51240803  0.43389581  0.53139763
   0.56474898  0.43610924  0.46596306
   0.52454971  0.46795671  0.43554070
   0.51205820  0.41227538  0.45264219
   0.51105039  0.54876451  0.50678087
   0.60879749  0.55127468  0.53179879