   6   6   0   0
  0.4500000E+04  0.3000000E-08  0.3000000E-08  0.3000000E-08  0.0000000E+00
  1.000000000000000E-004
  CAR 
 unknown system                          
      2.02581746    -25.94959126  301     -6.17993817      1.00000000
    -25.950  0.0000E+00  0.0000E+00
    -25.856  0.0000E+00  0.0000E+00
    -25.763  0.0000E+00  0.0000E+00
    -25.670  0.0000E+00  0.0000E+00
    -25.577  0.0000E+00  0.0000E+00
    -25.483  0.0000E+00  0.0000E+00
    -25.390  0.0000E+00  0.0000E+00
    -25.297  0.0000E+00  0.0000E+00
    -25.204  0.0000E+00  0.0000E+00
    -25.110  0.7937E-17  0.7401E-18
    -25.017  0.1568E-14  0.1469E-15
    -24.924  0.1994E-12  0.1874E-13
    -24.831  0.1653E-10  0.1560E-11
    -24.737  0.8933E-09  0.8486E-10
    -24.644  0.3153E-07  0.3025E-08
    -24.551  0.7271E-06  0.7083E-07
    -24.458  0.1097E-04  0.1094E-05
    -24.364  0.1084E-03  0.1121E-04
    -24.271  0.7025E-03  0.7672E-04
    -24.178  0.2987E-02  0.3552E-03
    -24.085  0.8340E-02  0.1133E-02
    -23.991  0.1530E-01  0.2560E-02
    -23.898  0.1846E-01  0.4281E-02
    -23.805  0.1464E-01  0.5647E-02
    -23.712  0.7635E-02  0.6359E-02
    -23.618  0.2616E-02  0.6603E-02
    -23.525  0.5888E-03  0.6658E-02
    -23.432  0.8693E-04  0.6666E-02
    -23.339  0.8414E-05  0.6667E-02
    -23.245  0.5333E-06  0.6667E-02
    -23.152  0.2211E-07  0.6667E-02
    -23.059  0.5990E-09  0.6667E-02
    -22.966  0.1060E-10  0.6667E-02
    -22.872  0.1222E-12  0.6667E-02
    -22.779  0.9207E-15  0.6667E-02
    -22.686  0.0000E+00  0.6667E-02
    -22.593  0.0000E+00  0.6667E-02
    -22.499  0.0000E+00  0.6667E-02
    -22.406  0.0000E+00  0.6667E-02
    -22.313  0.0000E+00  0.6667E-02
    -22.220  0.0000E+00  0.6667E-02
    -22.126  0.0000E+00  0.6667E-02
    -22.033  0.0000E+00  0.6667E-02
    -21.940  0.0000E+00  0.6667E-02
    -21.847  0.0000E+00  0.6667E-02
    -21.753  0.0000E+00  0.6667E-02
    -21.660  0.0000E+00  0.6667E-02
    -21.567  0.0000E+00  0.6667E-02
    -21.474  0.0000E+00  0.6667E-02
    -21.380  0.0000E+00  0.6667E-02
    -21.287  0.0000E+00  0.6667E-02
    -21.194  0.0000E+00  0.6667E-02
    -21.101  0.0000E+00  0.6667E-02
    -21.007  0.0000E+00  0.6667E-02
    -20.914  0.0000E+00  0.6667E-02
    -20.821  0.0000E+00  0.6667E-02
    -20.728  0.0000E+00  0.6667E-02
    -20.634  0.0000E+00  0.6667E-02
    -20.541  0.0000E+00  0.6667E-02
    -20.448  0.3969E-17  0.6667E-02
    -20.355  0.8215E-15  0.6667E-02
    -20.261  0.1104E-12  0.6667E-02
    -20.168  0.9655E-11  0.6667E-02
    -20.075  0.5510E-09  0.6667E-02
    -19.982  0.2053E-07  0.6667E-02
    -19.888  0.4997E-06  0.6667E-02
    -19.795  0.7958E-05  0.6667E-02
    -19.702  0.8298E-04  0.6675E-02
    -19.608  0.5672E-03  0.6728E-02
    -19.515  0.2544E-02  0.6965E-02
    -19.422  0.7492E-02  0.7664E-02
    -19.329  0.1450E-01  0.9016E-02
    -19.235  0.1845E-01  0.1074E-01
    -19.142  0.1543E-01  0.1218E-01
    -19.049  0.8489E-02  0.1297E-01
    -18.956  0.3068E-02  0.1325E-01
    -18.862  0.7284E-03  0.1332E-01
    -18.769  0.1135E-03  0.1333E-01
    -18.676  0.1159E-04  0.1333E-01
    -18.583  0.7751E-06  0.1333E-01
    -18.489  0.3392E-07  0.1333E-01
    -18.396  0.9700E-09  0.1333E-01
    -18.303  0.1811E-10  0.1333E-01
    -18.210  0.2206E-12  0.1333E-01
    -18.116  0.1754E-14  0.1333E-01
    -18.023  0.7937E-17  0.1333E-01
    -17.930  0.0000E+00  0.1333E-01
    -17.837  0.0000E+00  0.1333E-01
    -17.743  0.0000E+00  0.1333E-01
    -17.650  0.0000E+00  0.1333E-01
    -17.557  0.0000E+00  0.1333E-01
    -17.464  0.0000E+00  0.1333E-01
    -17.370  0.0000E+00  0.1333E-01
    -17.277  0.0000E+00  0.1333E-01
    -17.184  0.0000E+00  0.1333E-01
    -17.091  0.0000E+00  0.1333E-01
    -16.997  0.0000E+00  0.1333E-01
    -16.904  0.0000E+00  0.1333E-01
    -16.811  0.0000E+00  0.1333E-01
    -16.718  0.0000E+00  0.1333E-01
    -16.624  0.0000E+00  0.1333E-01
    -16.531  0.0000E+00  0.1333E-01
    -16.438  0.0000E+00  0.1333E-01
    -16.345  0.0000E+00  0.1333E-01
    -16.251  0.0000E+00  0.1333E-01
    -16.158  0.0000E+00  0.1333E-01
    -16.065  0.0000E+00  0.1333E-01
    -15.972  0.0000E+00  0.1333E-01
    -15.878  0.0000E+00  0.1333E-01
    -15.785  0.0000E+00  0.1333E-01
    -15.692  0.0000E+00  0.1333E-01
    -15.599  0.0000E+00  0.1333E-01
    -15.505  0.0000E+00  0.1333E-01
    -15.412  0.0000E+00  0.1333E-01
    -15.319  0.0000E+00  0.1333E-01
    -15.226  0.0000E+00  0.1333E-01
    -15.132  0.0000E+00  0.1333E-01
    -15.039  0.0000E+00  0.1333E-01
    -14.946  0.1310E-15  0.1333E-01
    -14.853  0.2046E-13  0.1333E-01
    -14.759  0.2083E-11  0.1333E-01
    -14.666  0.1382E-09  0.1333E-01
    -14.573  0.5989E-08  0.1333E-01
    -14.480  0.1695E-06  0.1333E-01
    -14.386  0.3136E-05  0.1333E-01
    -14.293  0.3798E-04  0.1334E-01
    -14.200  0.3014E-03  0.1337E-01
    -14.107  0.1569E-02  0.1351E-01
    -14.013  0.5363E-02  0.1401E-01
    -13.920  0.1204E-01  0.1513E-01
    -13.827  0.1777E-01  0.1679E-01
    -13.734  0.1725E-01  0.1840E-01
    -13.640  0.1101E-01  0.1943E-01
    -13.547  0.4615E-02  0.1986E-01
    -13.454  0.1272E-02  0.1998E-01
    -13.361  0.2299E-03  0.2000E-01
    -13.267  0.2727E-04  0.2000E-01
    -13.174  0.2119E-05  0.2000E-01
    -13.081  0.1078E-06  0.2000E-01
    -12.988  0.3584E-08  0.2000E-01
    -12.894  0.7783E-10  0.2000E-01
    -12.801  0.1352E-11  0.2000E-01
    -12.708  0.2152E-10  0.2000E-01
    -12.615  0.1211E-08  0.2000E-01
    -12.521  0.4457E-07  0.2000E-01
    -12.428  0.1072E-05  0.2000E-01
    -12.335  0.1688E-04  0.2000E-01
    -12.242  0.1740E-03  0.2002E-01
    -12.148  0.1177E-02  0.2013E-01
    -12.055  0.5227E-02  0.2062E-01
    -11.962  0.1525E-01  0.2204E-01
    -11.869  0.2925E-01  0.2476E-01
    -11.775  0.3690E-01  0.2821E-01
    -11.682  0.3062E-01  0.3106E-01
    -11.589  0.1671E-01  0.3262E-01
    -11.496  0.5998E-02  0.3318E-01
    -11.402  0.1414E-02  0.3331E-01
    -11.309  0.2190E-03  0.3333E-01
    -11.216  0.2223E-04  0.3333E-01
    -11.123  0.1479E-05  0.3333E-01
    -11.029  0.6442E-07  0.3333E-01
    -10.936  0.1834E-08  0.3333E-01
    -10.843  0.3412E-10  0.3333E-01
    -10.750  0.4142E-12  0.3333E-01
    -10.656  0.3270E-14  0.3333E-01
    -10.563  0.2381E-16  0.3333E-01
    -10.470  0.0000E+00  0.3333E-01
    -10.377  0.0000E+00  0.3333E-01
    -10.283  0.0000E+00  0.3333E-01
    -10.190  0.0000E+00  0.3333E-01
    -10.097  0.0000E+00  0.3333E-01
    -10.004  0.0000E+00  0.3333E-01
     -9.910  0.0000E+00  0.3333E-01
     -9.817  0.0000E+00  0.3333E-01
     -9.724  0.0000E+00  0.3333E-01
     -9.631  0.0000E+00  0.3333E-01
     -9.537  0.3969E-17  0.3333E-01
     -9.444  0.6350E-15  0.3333E-01
     -9.351  0.8851E-13  0.3333E-01
     -9.258  0.8026E-11  0.3333E-01
     -9.164  0.4764E-09  0.3333E-01
     -9.071  0.1855E-07  0.3333E-01
     -8.978  0.4751E-06  0.3333E-01
     -8.885  0.8019E-05  0.3333E-01
     -8.791  0.8948E-04  0.3334E-01
     -8.698  0.6621E-03  0.3340E-01
     -8.605  0.3258E-02  0.3371E-01
     -8.512  0.1070E-01  0.3471E-01
     -8.418  0.2349E-01  0.3690E-01
     -8.325  0.3455E-01  0.4012E-01
     -8.232  0.3408E-01  0.4330E-01
     -8.139  0.2254E-01  0.4540E-01
     -8.045  0.9987E-02  0.4633E-01
     -7.952  0.2959E-02  0.4660E-01
     -7.859  0.5846E-03  0.4666E-01
     -7.766  0.7703E-04  0.4667E-01
     -7.672  0.1062E-04  0.4667E-01
     -7.579  0.4632E-04  0.4667E-01
     -7.486  0.3519E-03  0.4670E-01
     -7.393  0.1768E-02  0.4687E-01
     -7.299  0.5833E-02  0.4741E-01
     -7.206  0.1264E-01  0.4859E-01
     -7.113  0.1802E-01  0.5027E-01
     -7.020  0.1688E-01  0.5185E-01
     -6.926  0.1040E-01  0.5282E-01
     -6.833  0.4210E-02  0.5321E-01
     -6.740  0.1120E-02  0.5331E-01
     -6.647  0.1954E-03  0.5333E-01
     -6.553  0.2237E-04  0.5333E-01
     -6.460  0.1678E-05  0.5333E-01
     -6.367  0.8234E-07  0.5333E-01
     -6.274  0.2642E-08  0.5333E-01
     -6.180  0.5535E-10  0.5333E-01
     -6.087  0.7568E-12  0.5333E-01
     -5.994  0.6745E-14  0.5333E-01
     -5.901  0.3969E-16  0.5333E-01
     -5.807  0.0000E+00  0.5333E-01
     -5.714  0.0000E+00  0.5333E-01
     -5.621  0.0000E+00  0.5333E-01
     -5.528  0.0000E+00  0.5333E-01
     -5.434  0.0000E+00  0.5333E-01
     -5.341  0.0000E+00  0.5333E-01
     -5.248  0.0000E+00  0.5333E-01
     -5.155  0.0000E+00  0.5333E-01
     -5.061  0.0000E+00  0.5333E-01
     -4.968  0.0000E+00  0.5333E-01
     -4.875  0.0000E+00  0.5333E-01
     -4.782  0.0000E+00  0.5333E-01
     -4.688  0.0000E+00  0.5333E-01
     -4.595  0.0000E+00  0.5333E-01
     -4.502  0.0000E+00  0.5333E-01
     -4.409  0.0000E+00  0.5333E-01
     -4.315  0.0000E+00  0.5333E-01
     -4.222  0.0000E+00  0.5333E-01
     -4.129  0.0000E+00  0.5333E-01
     -4.036  0.0000E+00  0.5333E-01
     -3.942  0.0000E+00  0.5333E-01
     -3.849  0.0000E+00  0.5333E-01
     -3.756  0.0000E+00  0.5333E-01
     -3.663  0.0000E+00  0.5333E-01
     -3.569  0.0000E+00  0.5333E-01
     -3.476  0.0000E+00  0.5333E-01
     -3.383  0.0000E+00  0.5333E-01
     -3.290  0.0000E+00  0.5333E-01
     -3.196  0.0000E+00  0.5333E-01
     -3.103  0.0000E+00  0.5333E-01
     -3.010  0.0000E+00  0.5333E-01
     -2.917  0.0000E+00  0.5333E-01
     -2.823  0.0000E+00  0.5333E-01
     -2.730  0.0000E+00  0.5333E-01
     -2.637  0.0000E+00  0.5333E-01
     -2.543  0.0000E+00  0.5333E-01
     -2.450  0.0000E+00  0.5333E-01
     -2.357  0.0000E+00  0.5333E-01
     -2.264  0.0000E+00  0.5333E-01
     -2.170  0.0000E+00  0.5333E-01
     -2.077  0.1310E-15  0.5333E-01
     -1.984  0.2053E-13  0.5333E-01
     -1.891  0.2089E-11  0.5333E-01
     -1.797  0.1386E-09  0.5333E-01
     -1.704  0.6004E-08  0.5333E-01
     -1.611  0.1698E-06  0.5333E-01
     -1.518  0.3142E-05  0.5333E-01
     -1.424  0.3805E-04  0.5334E-01
     -1.331  0.3020E-03  0.5337E-01
     -1.238  0.1574E-02  0.5351E-01
     -1.145  0.5405E-02  0.5402E-01
     -1.051  0.1236E-01  0.5517E-01
     -0.958  0.1945E-01  0.5698E-01
     -0.865  0.2334E-01  0.5916E-01
     -0.772  0.2621E-01  0.6160E-01
     -0.678  0.3115E-01  0.6451E-01
     -0.585  0.3426E-01  0.6770E-01
     -0.492  0.2973E-01  0.7047E-01
     -0.399  0.1899E-01  0.7224E-01
     -0.305  0.9092E-02  0.7309E-01
     -0.212  0.5271E-02  0.7358E-01
     -0.119  0.8227E-02  0.7435E-01
     -0.026  0.1476E-01  0.7573E-01
      0.068  0.1847E-01  0.7745E-01
      0.161  0.1527E-01  0.7887E-01
      0.254  0.8300E-02  0.7965E-01
      0.347  0.2965E-02  0.7992E-01
      0.441  0.6957E-03  0.7999E-01
      0.534  0.1071E-03  0.8000E-01
      0.627  0.1081E-04  0.8000E-01
      0.720  0.7148E-06  0.8000E-01
      0.814  0.3091E-07  0.8000E-01
      0.907  0.8737E-09  0.8000E-01
      1.000  0.1612E-10  0.8000E-01
      1.093  0.1941E-12  0.8000E-01
      1.187  0.1522E-14  0.8000E-01
      1.280  0.7937E-17  0.8000E-01
      1.373  0.0000E+00  0.8000E-01
      1.466  0.0000E+00  0.8000E-01
      1.560  0.0000E+00  0.8000E-01
      1.653  0.0000E+00  0.8000E-01
      1.746  0.0000E+00  0.8000E-01
      1.839  0.0000E+00  0.8000E-01
      1.933  0.0000E+00  0.8000E-01
      2.026  0.0000E+00  0.8000E-01
