    6    6  300    1
  0.4500000E+04  0.3000000E-08  0.3000000E-08  0.3000000E-08  0.0000000E+00
  1.000000000000000E-004
  CAR 
 unknown system                          
     16      4     12
 
  0.2500000E+00  0.2500000E+00  0.2500000E+00  0.2500000E+00
    1      -23.949590   1.000000
    2      -19.275178   1.000000
    3      -13.833592   1.000000
    4      -11.821748   1.000000
    5      -11.812062   1.000000
    6       -8.359647   1.000000
    7       -8.296928   1.000000
    8       -7.127315   1.000000
    9       -0.964972   0.000000
   10       -0.684204   0.000000
   11       -0.549707   0.000000
   12        0.024483   0.000000
 
 -0.2500000E+00  0.2500000E+00  0.2500000E+00  0.2500000E+00
    1      -23.949591   1.000000
    2      -19.275178   1.000000
    3      -13.833593   1.000000
    4      -11.821754   1.000000
    5      -11.812068   1.000000
    6       -8.359637   1.000000
    7       -8.296924   1.000000
    8       -7.127323   1.000000
    9       -0.964971   0.000000
   10       -0.684200   0.000000
   11       -0.549702   0.000000
   12        0.025817   0.000000
 
  0.2500000E+00 -0.2500000E+00  0.2500000E+00  0.2500000E+00
    1      -23.949591   1.000000
    2      -19.275176   1.000000
    3      -13.833590   1.000000
    4      -11.821760   1.000000
    5      -11.812066   1.000000
    6       -8.359647   1.000000
    7       -8.296941   1.000000
    8       -7.127315   1.000000
    9       -0.964964   0.000000
   10       -0.684200   0.000000
   11       -0.549698   0.000000
   12        0.025350   0.000000
 
 -0.2500000E+00 -0.2500000E+00  0.2500000E+00  0.2500000E+00
    1      -23.949591   1.000000
    2      -19.275176   1.000000
    3      -13.833590   1.000000
    4      -11.821760   1.000000
    5      -11.812066   1.000000
    6       -8.359644   1.000000
    7       -8.296939   1.000000
    8       -7.127316   1.000000
    9       -0.964964   0.000000
   10       -0.684202   0.000000
   11       -0.549698   0.000000
   12        0.025414   0.000000
