 vasp.5.4.1 24Jun15 (build Jan 13 2020 12:58:22) complex                        
  
 executed on           IFC91_ompi date 2020.02.05  18:18:08
 running on   15 total cores
 each image running on    1 cores
 distrk:  each k-point on    1 cores,    1 groups
 distr:  one band on NCORES_PER_BAND=   1 cores,    1 groups


--------------------------------------------------------------------------------------------------------


 INCAR:
 POTCAR:    PAW_PBE H 15Jun2001                   
 POTCAR:    PAW_PBE C 08Apr2002                   
 POTCAR:    PAW_PBE N 08Apr2002                   
 POTCAR:    PAW_PBE H 15Jun2001                   
   VRHFIN =H: ultrasoft test                                                    
   LEXCH  = PE                                                                  
   EATOM  =    12.4884 eV,    0.9179 Ry                                         
                                                                                
   TITEL  = PAW_PBE H 15Jun2001                                                 
   LULTRA =        F    use ultrasoft PP ?                                      
   IUNSCR =        0    unscreen: 0-lin 1-nonlin 2-no                           
   RPACOR =    0.000    partial core radius                                     
   POMASS =    1.000; ZVAL   =    1.000    mass and valenz                      
   RCORE  =    1.100    outmost cutoff radius                                   
   RWIGS  =    0.700; RWIGS  =    0.370    wigner-seitz radius (au A)           
   ENMAX  =  250.000; ENMIN  =  200.000 eV                                      
   RCLOC  =    0.701    cutoff for local pot                                    
   LCOR   =        T    correct aug charges                                     
   LPAW   =        T    paw PP                                                  
   EAUG   =  400.000                                                            
   RMAX   =    1.123    core radius for proj-oper                               
   RAUG   =    1.200    factor for augmentation sphere                          
   RDEP   =    1.112    radius for radial grids                                 
   RDEPT  =    0.926    core radius for aug-charge                              
                                                                                
   Atomic configuration                                                         
    2 entries                                                                   
     n  l   j            E        occ.                                          
     1  0  0.50        -6.4927   1.0000                                         
     2  1  0.50        -3.4015   0.0000                                         
   Description                                                                  
     l       E           TYP  RCUT    TYP  RCUT                                 
     0     -6.4927494     23  1.100                                             
     0      6.8029130     23  1.100                                             
     1     -4.0817478     23  1.100                                             
  local pseudopotential read in
  atomic valenz-charges read in
  non local Contribution for L=           0  read in
    real space projection operators read in
  non local Contribution for L=           0  read in
    real space projection operators read in
  non local Contribution for L=           1  read in
    real space projection operators read in
    PAW grid and wavefunctions read in
 
   number of l-projection  operators is LMAX  =           3
   number of lm-projection operators is LMMAX =           5
 
 POTCAR:    PAW_PBE C 08Apr2002                   
   VRHFIN =C: s2p2                                                              
   LEXCH  = PE                                                                  
   EATOM  =   147.1560 eV,   10.8157 Ry                                         
                                                                                
   TITEL  = PAW_PBE C 08Apr2002                                                 
   LULTRA =        F    use ultrasoft PP ?                                      
   IUNSCR =        1    unscreen: 0-lin 1-nonlin 2-no                           
   RPACOR =    1.200    partial core radius                                     
   POMASS =   12.011; ZVAL   =    4.000    mass and valenz                      
   RCORE  =    1.500    outmost cutoff radius                                   
   RWIGS  =    1.630; RWIGS  =    0.863    wigner-seitz radius (au A)           
   ENMAX  =  400.000; ENMIN  =  300.000 eV                                      
   ICORE  =        2    local potential                                         
   LCOR   =        T    correct aug charges                                     
   LPAW   =        T    paw PP                                                  
   EAUG   =  644.873                                                            
   DEXC   =    0.000                                                            
   RMAX   =    1.529    core radius for proj-oper                               
   RAUG   =    1.300    factor for augmentation sphere                          
   RDEP   =    1.501    radius for radial grids                                 
   RDEPT  =    1.300    core radius for aug-charge                              
                                                                                
   Atomic configuration                                                         
    4 entries                                                                   
     n  l   j            E        occ.                                          
     1  0  0.50      -273.3789   2.0000                                         
     2  0  0.50       -13.7508   2.0000                                         
     2  1  0.50        -5.2854   2.0000                                         
     3  2  1.50        -5.4423   0.0000                                         
   Description                                                                  
     l       E           TYP  RCUT    TYP  RCUT                                 
     0    -13.7508458     23  1.200                                             
     0     -8.2022199     23  1.200                                             
     1     -5.2854383     23  1.500                                             
     1     34.0145650     23  1.500                                             
     2     -5.4423304      7  1.500                                             
  local pseudopotential read in
  partial core-charges read in
  partial kinetic energy density read in
  atomic valenz-charges read in
  non local Contribution for L=           0  read in
    real space projection operators read in
  non local Contribution for L=           0  read in
    real space projection operators read in
  non local Contribution for L=           1  read in
    real space projection operators read in
  non local Contribution for L=           1  read in
    real space projection operators read in
    PAW grid and wavefunctions read in
 
   number of l-projection  operators is LMAX  =           4
   number of lm-projection operators is LMMAX =           8
 
 POTCAR:    PAW_PBE N 08Apr2002                   
   VRHFIN =N: s2p3                                                              
   LEXCH  = PE                                                                  
   EATOM  =   264.5486 eV,   19.4438 Ry                                         
                                                                                
   TITEL  = PAW_PBE N 08Apr2002                                                 
   LULTRA =        F    use ultrasoft PP ?                                      
   IUNSCR =        1    unscreen: 0-lin 1-nonlin 2-no                           
   RPACOR =    1.200    partial core radius                                     
   POMASS =   14.001; ZVAL   =    5.000    mass and valenz                      
   RCORE  =    1.500    outmost cutoff radius                                   
   RWIGS  =    1.400; RWIGS  =    0.741    wigner-seitz radius (au A)           
   ENMAX  =  400.000; ENMIN  =  300.000 eV                                      
   ICORE  =        2    local potential                                         
   LCOR   =        T    correct aug charges                                     
   LPAW   =        T    paw PP                                                  
   EAUG   =  627.112                                                            
   DEXC   =    0.000                                                            
   RMAX   =    1.529    core radius for proj-oper                               
   RAUG   =    1.300    factor for augmentation sphere                          
   RDEP   =    1.514    radius for radial grids                                 
   RDEPT  =    1.338    core radius for aug-charge                              
                                                                                
   Atomic configuration                                                         
    4 entries                                                                   
     n  l   j            E        occ.                                          
     1  0  0.50      -384.7179   2.0000                                         
     2  0  0.50       -18.5828   2.0000                                         
     2  1  0.50        -7.0898   3.0000                                         
     3  2  1.50        -6.8029   0.0000                                         
   Description                                                                  
     l       E           TYP  RCUT    TYP  RCUT                                 
     0    -18.5828119     23  1.200                                             
     0    -13.5018863     23  1.200                                             
     1     -7.0897853     23  1.500                                             
     1      9.5240782     23  1.500                                             
     2     -6.8029130      7  1.500                                             
  local pseudopotential read in
  partial core-charges read in
  partial kinetic energy density read in
  atomic valenz-charges read in
  non local Contribution for L=           0  read in
    real space projection operators read in
  non local Contribution for L=           0  read in
    real space projection operators read in
  non local Contribution for L=           1  read in
    real space projection operators read in
  non local Contribution for L=           1  read in
    real space projection operators read in
    PAW grid and wavefunctions read in
 
   number of l-projection  operators is LMAX  =           4
   number of lm-projection operators is LMMAX =           8
 

 ----------------------------------------------------------------------------- 
|                                                                             |
|  ADVICE TO THIS USER RUNNING 'VASP/VAMP'   (HEAR YOUR MASTER'S VOICE ...):  |
|                                                                             |
|      You have a (more or less) 'small supercell' and for smaller cells      |
|      it is recommended  to use the reciprocal-space projection scheme!      |
|      The real space optimization is not  efficient for small cells and it   |
|      is also less accurate ...                                              |
|      Therefore set LREAL=.FALSE. in the  INCAR file                         |
|                                                                             |
 ----------------------------------------------------------------------------- 

 Optimization of the real space projectors (new method)

 maximal supplied QI-value         = 34.20
 optimisation between [QCUT,QGAM] = [  9.92, 20.18] = [ 27.55,114.04] Ry 
 Optimized for a Real-space Cutoff    1.26 Angstroem

   l    n(q)    QCUT    max X(q) W(low)/X(q) W(high)/X(q)  e(spline) 
   0      8     9.919    19.460    0.50E-03    0.23E-03    0.29E-06
   0      8     9.919    12.209    0.48E-03    0.23E-03    0.28E-06
   1      7     9.919     4.655    0.17E-03    0.75E-03    0.30E-06
 Optimization of the real space projectors (new method)

 maximal supplied QI-value         = 25.13
 optimisation between [QCUT,QGAM] = [ 10.05, 20.36] = [ 28.30,116.06] Ry 
 Optimized for a Real-space Cutoff    1.30 Angstroem

   l    n(q)    QCUT    max X(q) W(low)/X(q) W(high)/X(q)  e(spline) 
   0      8    10.053   115.676    0.49E-03    0.72E-03    0.18E-06
   0      8    10.053    87.132    0.49E-03    0.71E-03    0.18E-06
   1      7    10.053     4.429    0.32E-03    0.31E-03    0.18E-06
   1      7    10.053     2.733    0.23E-03    0.19E-03    0.20E-06
 Optimization of the real space projectors (new method)

 maximal supplied QI-value         = 25.13
 optimisation between [QCUT,QGAM] = [ 10.05, 20.36] = [ 28.30,116.06] Ry 
 Optimized for a Real-space Cutoff    1.65 Angstroem

   l    n(q)    QCUT    max X(q) W(low)/X(q) W(high)/X(q)  e(spline) 
   0     10    10.053    79.467    0.76E-04    0.72E-04    0.56E-06
   0     10    10.053    66.151    0.76E-04    0.72E-04    0.55E-06
   1     10    10.053     8.350    0.25E-03    0.92E-03    0.41E-05
   1     10    10.053     5.531    0.27E-03    0.10E-02    0.45E-05
  PAW_PBE H 15Jun2001                   :
 energy of atom  1       EATOM=  -12.4884
 kinetic energy error for atom=    0.0098 (will be added to EATOM!!)
  PAW_PBE C 08Apr2002                   :
 energy of atom  2       EATOM= -147.1560
 kinetic energy error for atom=    0.0288 (will be added to EATOM!!)
  PAW_PBE N 08Apr2002                   :
 energy of atom  3       EATOM= -264.5486
 kinetic energy error for atom=    0.0736 (will be added to EATOM!!)
 
 
 POSCAR: H3 C2 N1                                
  positions in direct lattice
  velocities in cartesian coordinates
 exchange correlation table for  LEXCH =        8
   RHO(1)=    0.500       N(1)  =     2000
   RHO(2)=  100.500       N(2)  =     4000

 VTST: version 3.2, (02/03/18)

 CHAIN: initializing optimizer
 
 OPT: Using FIRE optimizer
 OPT: FIRE, Init
 OPT: FIRE, MAXMOVE       0.20000
 OPT: FIRE, TIMESTEP      0.10000
 OPT: FIRE, FTIMEMAX      1.00000
 OPT: FIRE, FTIMEINC      1.10000
 OPT: FIRE, FTIMEDEC      0.50000
 OPT: FIRE, FALPHADEC     0.99000
 OPT: FIRE, FALPHA        0.10000
 OPT: FIRE, FNMIN         5
 
 CHAIN: Read ICHAIN            0
 CHAIN: Running the NEB
 NEB:          SPRING     -5.000000
 NEB:          LCLIMB      T
 NEB:     LTANGENTOLD      F
 NEB:           LDNEB      F
 NEB:        LDNEBORG      F
 NEB:        LNEBCELL      F
 NEB:          EFIRST      0.000000
 NEB:           ELAST      0.000000
 
 POSCAR: H3 C2 N1                                
  positions in direct lattice
  No initial velocities read in
 
 POSCAR: H3 C2 N1                                
  positions in direct lattice
  No initial velocities read in
 


--------------------------------------------------------------------------------------------------------


 ion  position               nearest neighbor table
   1  0.476  0.468  0.508-   4 1.10
   2  0.475  0.512  0.469-   4 1.10
   3  0.469  0.524  0.527-   4 1.09
   4  0.485  0.503  0.503-   3 1.09   2 1.10   1 1.10   6 1.45
   5  0.562  0.488  0.486-   6 1.19
   6  0.533  0.506  0.506-   5 1.19   4 1.45
 
  LATTYP: Found a simple cubic cell.
 ALAT       =    30.0000000000
  
  Lattice vectors:
  
 A1 = (  30.0000000000,   0.0000000000,   0.0000000000)
 A2 = (   0.0000000000,  30.0000000000,   0.0000000000)
 A3 = (   0.0000000000,   0.0000000000,  30.0000000000)


Analysis of symmetry for initial positions (statically):
=====================================================================
 Subroutine PRICEL returns:
 Original cell was already a primitive cell.
 

 Routine SETGRP: Setting up the symmetry group for a 
 simple cubic supercell.


 Subroutine GETGRP returns: Found  1 space group operations
 (whereof  1 operations were pure point group operations)
 out of a pool of 48 trial point group operations.


The static configuration has the point symmetry C_1 .


Analysis of symmetry for dynamics (positions and initial velocities):
=====================================================================
 Subroutine PRICEL returns:
 Original cell was already a primitive cell.
 

 Routine SETGRP: Setting up the symmetry group for a 
 simple cubic supercell.


 Subroutine GETGRP returns: Found  1 space group operations
 (whereof  1 operations were pure point group operations)
 out of a pool of 48 trial point group operations.


The dynamic configuration has the point symmetry C_1 .
 
 
 KPOINTS: Mo2C                                    

Automatic generation of k-mesh.
Space group operators:
 irot       det(A)        alpha          n_x          n_y          n_z        tau_x        tau_y        tau_z
    1     1.000000     0.000000     1.000000     0.000000     0.000000     0.000000     0.000000     0.000000
 
 Subroutine IBZKPT returns following result:
 ===========================================
 
 Found      4 irreducible k-points:
 
 Following reciprocal coordinates:
            Coordinates               Weight
  0.250000  0.250000  0.250000      2.000000
 -0.250000  0.250000  0.250000      2.000000
  0.250000 -0.250000  0.250000      2.000000
 -0.250000 -0.250000  0.250000      2.000000
 
 Following cartesian coordinates:
            Coordinates               Weight
  0.008333  0.008333  0.008333      2.000000
 -0.008333  0.008333  0.008333      2.000000
  0.008333 -0.008333  0.008333      2.000000
 -0.008333 -0.008333  0.008333      2.000000
 


--------------------------------------------------------------------------------------------------------




 Dimension of arrays:
   k-points           NKPTS =      4   k-points in BZ     NKDIM =      4   number of bands    NBANDS=     12
   number of dos      NEDOS =    301   number of ions     NIONS =      6
   non local maximal  LDIM  =      4   non local SUM 2l+1 LMDIM =      8
   total plane-waves  NPLWV = ******
   max r-space proj   IRMAX =   2395   max aug-charges    IRDMAX=   1738
   dimension x,y,z NGX =   150 NGY =  150 NGZ =  150
   dimension x,y,z NGXF=   300 NGYF=  300 NGZF=  300
   support grid    NGXF=   300 NGYF=  300 NGZF=  300
   ions per type =               3   2   1
 NGX,Y,Z   is equivalent  to a cutoff of   8.31,  8.31,  8.31 a.u.
 NGXF,Y,Z  is equivalent  to a cutoff of  16.62, 16.62, 16.62 a.u.


 I would recommend the setting:
   dimension x,y,z NGX =   147 NGY =  147 NGZ =  147
 SYSTEM =  unknown system                          
 POSCAR =  H3 C2 N1                                

 Startparameter for this run:
   NWRITE =      2    write-flag & timer
   PREC   = normal    normal or accurate (medium, high low for compatibility)
   ISTART =      0    job   : 0-new  1-cont  2-samecut
   ICHARG =      2    charge: 1-file 2-atom 10-const
   ISPIN  =      1    spin polarized calculation?
   LNONCOLLINEAR =      F non collinear calculations
   LSORBIT =      F    spin-orbit coupling
   INIWAV =      1    electr: 0-lowe 1-rand  2-diag
   LASPH  =      F    aspherical Exc in radial PAW
   METAGGA=      F    non-selfconsistent MetaGGA calc.

 Electronic Relaxation 1
   ENCUT  =  400.0 eV  29.40 Ry    5.42 a.u.  48.92 48.92 48.92*2*pi/ulx,y,z
   ENINI  =  400.0     initial cutoff
   ENAUG  =  644.9 eV  augmentation charge cutoff
   NELM   =    500;   NELMIN=  6; NELMDL= -5     # of ELM steps 
   EDIFF  = 0.1E-03   stopping-criterion for ELM
   LREAL  =      T    real-space projection
   NLSPLINE    = F    spline interpolate recip. space projectors
   LCOMPAT=      F    compatible to vasp.4.4
   GGA_COMPAT  = T    GGA compatible to vasp.4.4-vasp.4.6
   LMAXPAW     = -100 max onsite density
   LMAXMIX     =    2 max onsite mixed and CHGCAR
   VOSKOWN=      0    Vosko Wilk Nusair interpolation
   ROPT   =   -0.00050  -0.00050  -0.00050
 Ionic relaxation
   EDIFFG = -.1E+00   stopping-criterion for IOM
   NSW    =    300    number of steps for IOM
   NBLOCK =      1;   KBLOCK =    300    inner block; outer block 
   IBRION =      3    ionic relax: 0-MD 1-quasi-New 2-CG
   NFREE  =      0    steps in history (QN), initial steepest desc. (CG)
   ISIF   =      2    stress and relaxation
   IWAVPR =     11    prediction:  0-non 1-charg 2-wave 3-comb
   ISYM   =      2    0-nonsym 1-usesym 2-fastsym
   LCORR  =      T    Harris-Foulkes like correction to forces

   POTIM  = 0.0000    time-step for ionic-motion
   TEIN   =    0.0    initial temperature
   TEBEG  =    0.0;   TEEND  =   0.0 temperature during run
   SMASS  =   2.00    Nose mass-parameter (am)
   estimated Nose-frequenzy (Omega)   =  0.12E+10 period in steps =  0.00 mass=   0.137E-25a.u.
   SCALEE = 1.0000    scale energy and forces
   NPACO  =    256;   APACO  = 16.0  distance and # of slots for P.C.
   PSTRESS=    0.0 pullay stress

  Mass of Ions in am
   POMASS =   1.00 12.01 14.00
  Ionic Valenz
   ZVAL   =   1.00  4.00  5.00
  Atomic Wigner-Seitz radii
   RWIGS  =  -1.00 -1.00 -1.00
  virtual crystal weights 
   VCA    =   1.00  1.00  1.00
   NELECT =      16.0000    total number of electrons
   NUPDOWN=      -1.0000    fix difference up-down

 DOS related values:
   EMIN   =  10.00;   EMAX   =-10.00  energy-range for DOS
   EFERMI =   0.00
   ISMEAR =     0;   SIGMA  =   0.20  broadening in eV -4-tet -1-fermi 0-gaus

 Electronic relaxation 2 (details)
   IALGO  =     38    algorithm
   LDIAG  =      T    sub-space diagonalisation (order eigenvalues)
   LSUBROT=      F    optimize rotation matrix (better conditioning)
   TURBO    =      0    0=normal 1=particle mesh
   IRESTART =      0    0=no restart 2=restart with 2 vectors
   NREBOOT  =      0    no. of reboots
   NMIN     =      0    reboot dimension
   EREF     =   0.00    reference energy to select bands
   IMIX   =      4    mixing-type and parameters
     AMIX     =   0.40;   BMIX     =  1.00
     AMIX_MAG =   1.60;   BMIX_MAG =  1.00
     AMIN     =   0.10
     WC   =   100.;   INIMIX=   1;  MIXPRE=   1;  MAXMIX= -45

 Intra band minimization:
   WEIMIN = 0.0010     energy-eigenvalue tresh-hold
   EBREAK =  0.21E-05  absolut break condition
   DEPER  =   0.30     relativ break condition  

   TIME   =   0.40     timestep for ELM

  volume/ion in A,a.u.               =    4500.00     30367.50
  Fermi-wavevector in a.u.,A,eV,Ry     =   0.137508  0.259852  0.257264  0.018908
  Thomas-Fermi vector in A             =   0.790710
 
 Write flags
   LWAVE  =      F    write WAVECAR
   LCHARG =      F    write CHGCAR
   LVTOT  =      F    write LOCPOT, total local potential
   LVHAR  =      F    write LOCPOT, Hartree potential only
   LELF   =      F    write electronic localiz. function (ELF)
   LORBIT =      0    0 simple, 1 ext, 2 COOP (PROOUT)


 Dipole corrections
   LMONO  =      F    monopole corrections only (constant potential shift)
   LDIPOL =      F    correct potential (dipole corrections)
   IDIPOL =      0    1-x, 2-y, 3-z, 4-all directions 
   EPSILON=  1.0000000 bulk dielectric constant

 Exchange correlation treatment:
   GGA     =    PE    GGA type
   LEXCH   =     8    internal setting for exchange type
   VOSKOWN=      0    Vosko Wilk Nusair interpolation
   LHFCALC =     F    Hartree Fock is set to
   LHFONE  =     F    Hartree Fock one center treatment
   AEXX    =    0.0000 exact exchange contribution

 Linear response parameters
   LEPSILON=     F    determine dielectric tensor
   LRPA    =     F    only Hartree local field effects (RPA)
   LNABLA  =     F    use nabla operator in PAW spheres
   LVEL    =     F    velocity operator in full k-point grid
   LINTERFAST=   F  fast interpolation
   KINTER  =     0    interpolate to denser k-point grid
   CSHIFT  =0.1000    complex shift for real part using Kramers Kronig
   OMEGAMAX=  -1.0    maximum frequency
   DEG_THRESHOLD= 0.2000000E-02 threshold for treating states as degnerate
   RTIME   =    0.100 relaxation time in fs

 Orbital magnetization related:
   ORBITALMAG=     F  switch on orbital magnetization
   LCHIMAG   =     F  perturbation theory with respect to B field
   DQ        =  0.001000  dq finite difference perturbation B field



--------------------------------------------------------------------------------------------------------


 quickmin algorithm: (dynamic with friction)
 charge density and potential will be updated during run
 non-spin polarized calculation
 Variant of blocked Davidson
 Davidson routine will perform the subspace rotation
 perform sub-space diagonalisation
    after iterative eigenvector-optimisation
 modified Broyden-mixing scheme, WC =      100.0
 initial mixing is a Kerker type mixing with AMIX =  0.4000 and BMIX =      1.0000
 Hartree-type preconditioning will be used
 using additional bands            4
 real space projection scheme for non local part
 use partial core corrections
 calculate Harris-corrections to forces 
   (improved forces if not selfconsistent)
 use gradient corrections 
 use of overlap-Matrix (Vanderbilt PP)
 Gauss-broadening in eV      SIGMA  =   0.20


--------------------------------------------------------------------------------------------------------


  energy-cutoff  :      400.00
  volume of cell :    27000.00
      direct lattice vectors                 reciprocal lattice vectors
    30.000000000  0.000000000  0.000000000     0.033333333  0.000000000  0.000000000
     0.000000000 30.000000000  0.000000000     0.000000000  0.033333333  0.000000000
     0.000000000  0.000000000 30.000000000     0.000000000  0.000000000  0.033333333

  length of vectors
    30.000000000 30.000000000 30.000000000     0.033333333  0.033333333  0.033333333


 
 k-points in units of 2pi/SCALE and weight: Mo2C                                    
   0.00833333  0.00833333  0.00833333       0.250
  -0.00833333  0.00833333  0.00833333       0.250
   0.00833333 -0.00833333  0.00833333       0.250
  -0.00833333 -0.00833333  0.00833333       0.250
 
 k-points in reciprocal lattice and weights: Mo2C                                    
   0.25000000  0.25000000  0.25000000       0.250
  -0.25000000  0.25000000  0.25000000       0.250
   0.25000000 -0.25000000  0.25000000       0.250
  -0.25000000 -0.25000000  0.25000000       0.250
 
 position of ions in fractional coordinates (direct lattice) 
   0.47566102  0.46766978  0.50826949
   0.47546131  0.51216028  0.46898451
   0.46924330  0.52417200  0.52746003
   0.48502675  0.50264807  0.50299646
   0.56158750  0.48759712  0.48593683
   0.53301366  0.50579407  0.50629677
 
 position of ions in cartesian coordinates  (Angst):
  14.26983060 14.03009338 15.24808484
  14.26383918 15.36480853 14.06953535
  14.07729912 15.72516009 15.82380077
  14.55080255 15.07944210 15.08989385
  16.84762503 14.62791357 14.57810492
  15.99040966 15.17382206 15.18890304
 


--------------------------------------------------------------------------------------------------------


 k-point  1 :   0.2500 0.2500 0.2500  plane waves:  490454
 k-point  2 :  -0.2500 0.2500 0.2500  plane waves:  490454
 k-point  3 :   0.2500-0.2500 0.2500  plane waves:  490454
 k-point  4 :  -0.2500-0.2500 0.2500  plane waves:  490454

 maximum and minimum number of plane-waves per node :    490454   490454

 maximum number of plane-waves:    490454
 maximum index in each direction: 
   IXMAX=   49   IYMAX=   49   IZMAX=   48
   IXMIN=  -49   IYMIN=  -49   IZMIN=  -49

 WARNING: aliasing errors must be expected set NGX to 198 to avoid them
 WARNING: aliasing errors must be expected set NGY to 198 to avoid them
 WARNING: aliasing errors must be expected set NGZ to 196 to avoid them
 aliasing errors are usually negligible using standard VASP settings
 and one can safely disregard these warnings

 serial   3D FFT for wavefunctions
 parallel 3D FFT for charge:
    minimum data exchange during FFTs selected (reduces bandwidth)


 total amount of memory used by VASP on root node  3203886. kBytes
========================================================================

   base      :      30000. kBytes
   nonlr-proj:        690. kBytes
   fftplans  :     924480. kBytes
   grid      :    1872000. kBytes
   one-center:         18. kBytes
   wavefun   :     376698. kBytes
 
     INWAV:  cpu time    0.0000: real time    0.0006
 Broyden mixing: mesh for mixing (old mesh)
   NGX = 97   NGY = 97   NGZ = 97
  (NGX  =300   NGY  =300   NGZ  =300)
  gives a total of 912673 points

 initial charge density was supplied:
 charge density of overlapping atoms calculated
 number of electron      16.0000000 magnetization 
 keeping initial charge density in first step


--------------------------------------------------------------------------------------------------------


 Maximum index for non-local projection operator         2266
 Maximum index for augmentation-charges         1488 (set IRDMAX)


--------------------------------------------------------------------------------------------------------


 First call to EWALD:  gamma=   0.059
 Maximum number of real-space cells 3x 3x 3
 Maximum number of reciprocal cells 3x 3x 3

 FEWALD executed in parallel
    FEWALD:  cpu time    0.0020: real time    0.0020


----------------------------------------- Iteration    1(   1)  ---------------------------------------


    POTLOK:  cpu time   29.3435: real time   29.4070
    SETDIJ:  cpu time    0.0070: real time    0.0065
     EDDAV:  cpu time  139.1858: real time  139.5021
       DOS:  cpu time    0.0000: real time    0.0003
    --------------------------------------------
      LOOP:  cpu time  168.5404: real time  168.9212

 eigenvalue-minimisations  :   160
 total energy-change (2. order) : 0.1124187E+03  (-0.2143055E+03)
 number of electron      16.0000000 magnetization 
 augmentation part       16.0000000 magnetization 

 Free energy of the ion-electron system (eV)
  ---------------------------------------------------
  alpha Z        PSCENC =         0.04144063
  Ewald energy   TEWEN  =       710.45389671
  -Hartree energ DENC   =     -1125.61172839
  -exchange      EXHF   =         0.00000000
  -V(xc)+E(xc)   XCENC  =        51.40702737
  PAW double counting   =       428.37890668     -430.73533574
  entropy T*S    EENTRO =        -0.19351071
  eigenvalues    EBANDS =      -117.48734476
  atomic energy  EATOM  =       596.16534815
  Solvation  Ediel_sol  =         0.00000000
  ---------------------------------------------------
  free energy    TOTEN  =       112.41869993 eV

  energy without entropy =      112.61221064  energy(sigma->0) =      112.51545529


--------------------------------------------------------------------------------------------------------




----------------------------------------- Iteration    1(   2)  ---------------------------------------


     EDDAV:  cpu time  124.2821: real time  124.5389
       DOS:  cpu time    0.0010: real time    0.0002
    --------------------------------------------
      LOOP:  cpu time  124.2851: real time  124.5451

 eigenvalue-minimisations  :   192
 total energy-change (2. order) :-0.1171938E+03  (-0.1147453E+03)
 number of electron      16.0000000 magnetization 
 augmentation part       16.0000000 magnetization 

 Free energy of the ion-electron system (eV)
  ---------------------------------------------------
  alpha Z        PSCENC =         0.04144063
  Ewald energy   TEWEN  =       710.45389671
  -Hartree energ DENC   =     -1125.61172839
  -exchange      EXHF   =         0.00000000
  -V(xc)+E(xc)   XCENC  =        51.40702737
  PAW double counting   =       428.37890668     -430.73533574
  entropy T*S    EENTRO =         0.00000000
  eigenvalues    EBANDS =      -234.87465780
  atomic energy  EATOM  =       596.16534815
  Solvation  Ediel_sol  =         0.00000000
  ---------------------------------------------------
  free energy    TOTEN  =        -4.77510240 eV

  energy without entropy =       -4.77510240  energy(sigma->0) =       -4.77510240


--------------------------------------------------------------------------------------------------------




----------------------------------------- Iteration    1(   3)  ---------------------------------------


     EDDAV:  cpu time   89.3294: real time   89.5147
       DOS:  cpu time    0.0000: real time    0.0001
    --------------------------------------------
      LOOP:  cpu time   89.3294: real time   89.5184

 eigenvalue-minimisations  :   128
 total energy-change (2. order) :-0.3045010E+02  (-0.3021754E+02)
 number of electron      16.0000000 magnetization 
 augmentation part       16.0000000 magnetization 

 Free energy of the ion-electron system (eV)
  ---------------------------------------------------
  alpha Z        PSCENC =         0.04144063
  Ewald energy   TEWEN  =       710.45389671
  -Hartree energ DENC   =     -1125.61172839
  -exchange      EXHF   =         0.00000000
  -V(xc)+E(xc)   XCENC  =        51.40702737
  PAW double counting   =       428.37890668     -430.73533574
  entropy T*S    EENTRO =         0.00000000
  eigenvalues    EBANDS =      -265.32476167
  atomic energy  EATOM  =       596.16534815
  Solvation  Ediel_sol  =         0.00000000
  ---------------------------------------------------
  free energy    TOTEN  =       -35.22520627 eV

  energy without entropy =      -35.22520627  energy(sigma->0) =      -35.22520627


--------------------------------------------------------------------------------------------------------




----------------------------------------- Iteration    1(   4)  ---------------------------------------


     EDDAV:  cpu time   86.8408: real time   87.0202
       DOS:  cpu time    0.0000: real time    0.0001
    --------------------------------------------
      LOOP:  cpu time   86.8428: real time   87.0242

 eigenvalue-minimisations  :   116
 total energy-change (2. order) :-0.3260723E+01  (-0.3222652E+01)
 number of electron      16.0000000 magnetization 
 augmentation part       16.0000000 magnetization 

 Free energy of the ion-electron system (eV)
  ---------------------------------------------------
  alpha Z        PSCENC =         0.04144063
  Ewald energy   TEWEN  =       710.45389671
  -Hartree energ DENC   =     -1125.61172839
  -exchange      EXHF   =         0.00000000
  -V(xc)+E(xc)   XCENC  =        51.40702737
  PAW double counting   =       428.37890668     -430.73533574
  entropy T*S    EENTRO =         0.00000000
  eigenvalues    EBANDS =      -268.58548509
  atomic energy  EATOM  =       596.16534815
  Solvation  Ediel_sol  =         0.00000000
  ---------------------------------------------------
  free energy    TOTEN  =       -38.48592968 eV

  energy without entropy =      -38.48592968  energy(sigma->0) =      -38.48592968


--------------------------------------------------------------------------------------------------------




----------------------------------------- Iteration    1(   5)  ---------------------------------------


     EDDAV:  cpu time   82.1835: real time   82.3540
       DOS:  cpu time    0.0000: real time    0.0001
    CHARGE:  cpu time    9.6125: real time    9.6322
    MIXING:  cpu time    0.7429: real time    0.7446
    --------------------------------------------
      LOOP:  cpu time   92.5409: real time   92.7345

 eigenvalue-minimisations  :   112
 total energy-change (2. order) :-0.9675787E-01  (-0.9592931E-01)
 number of electron      15.9999998 magnetization 
 augmentation part        0.5079359 magnetization 

 Broyden mixing:
  rms(total) = 0.10665E+01    rms(broyden)= 0.10657E+01
  rms(prec ) = 0.11028E+01
  weight for this iteration     100.00

 Free energy of the ion-electron system (eV)
  ---------------------------------------------------
  alpha Z        PSCENC =         0.04144063
  Ewald energy   TEWEN  =       710.45389671
  -Hartree energ DENC   =     -1125.61172839
  -exchange      EXHF   =         0.00000000
  -V(xc)+E(xc)   XCENC  =        51.40702737
  PAW double counting   =       428.37890668     -430.73533574
  entropy T*S    EENTRO =         0.00000000
  eigenvalues    EBANDS =      -268.68224296
  atomic energy  EATOM  =       596.16534815
  Solvation  Ediel_sol  =         0.00000000
  ---------------------------------------------------
  free energy    TOTEN  =       -38.58268756 eV

  energy without entropy =      -38.58268756  energy(sigma->0) =      -38.58268756


--------------------------------------------------------------------------------------------------------




----------------------------------------- Iteration    1(   6)  ---------------------------------------


    POTLOK:  cpu time   34.6337: real time   34.7052
    SETDIJ:  cpu time    0.0070: real time    0.0070
     EDDAV:  cpu time   80.9887: real time   81.1547
       DOS:  cpu time    0.0000: real time    0.0001
    CHARGE:  cpu time    5.5892: real time    5.6012
    MIXING:  cpu time    0.8379: real time    0.8395
    --------------------------------------------
      LOOP:  cpu time  122.0584: real time  122.3126

 eigenvalue-minimisations  :   112
 total energy-change (2. order) : 0.2684895E+01  (-0.4605555E+00)
 number of electron      15.9999996 magnetization 
 augmentation part        0.4596281 magnetization 

 Broyden mixing:
  rms(total) = 0.57372E+00    rms(broyden)= 0.57362E+00
  rms(prec ) = 0.58902E+00
  weight for this iteration     100.00

 eigenvalues of (default mixing * dielectric matrix)
  average eigenvalue GAMMA=   1.5151
  1.5151

 Free energy of the ion-electron system (eV)
  ---------------------------------------------------
  alpha Z        PSCENC =         0.04144063
  Ewald energy   TEWEN  =       710.45389671
  -Hartree energ DENC   =     -1155.03017751
  -exchange      EXHF   =         0.00000000
  -V(xc)+E(xc)   XCENC  =        53.01930483
  PAW double counting   =       713.39496085     -716.07664589
  entropy T*S    EENTRO =         0.00000000
  eigenvalues    EBANDS =      -237.86592035
  atomic energy  EATOM  =       596.16534815
  Solvation  Ediel_sol  =         0.00000000
  ---------------------------------------------------
  free energy    TOTEN  =       -35.89779259 eV

  energy without entropy =      -35.89779259  energy(sigma->0) =      -35.89779259


--------------------------------------------------------------------------------------------------------




----------------------------------------- Iteration    1(   7)  ---------------------------------------


    POTLOK:  cpu time   34.5947: real time   34.6648
    SETDIJ:  cpu time    0.0060: real time    0.0069
     EDDAV:  cpu time   78.6170: real time   78.7734
       DOS:  cpu time    0.0000: real time    0.0001
    CHARGE:  cpu time    5.0822: real time    5.0918
    MIXING:  cpu time    0.7749: real time    0.7773
    --------------------------------------------
      LOOP:  cpu time  119.0759: real time  119.3181

 eigenvalue-minimisations  :   116
 total energy-change (2. order) : 0.6637256E+00  (-0.1580851E+00)
 number of electron      15.9999996 magnetization 
 augmentation part        0.4503616 magnetization 

 Broyden mixing:
  rms(total) = 0.24699E+00    rms(broyden)= 0.24694E+00
  rms(prec ) = 0.25270E+00
  weight for this iteration     100.00

 eigenvalues of (default mixing * dielectric matrix)
  average eigenvalue GAMMA=   1.5079
  0.9462  2.0696

 Free energy of the ion-electron system (eV)
  ---------------------------------------------------
  alpha Z        PSCENC =         0.04144063
  Ewald energy   TEWEN  =       710.45389671
  -Hartree energ DENC   =     -1173.07087736
  -exchange      EXHF   =         0.00000000
  -V(xc)+E(xc)   XCENC  =        54.17596858
  PAW double counting   =      1055.47837363    -1058.33071285
  entropy T*S    EENTRO =         0.00000000
  eigenvalues    EBANDS =      -220.14750448
  atomic energy  EATOM  =       596.16534815
  Solvation  Ediel_sol  =         0.00000000
  ---------------------------------------------------
  free energy    TOTEN  =       -35.23406699 eV

  energy without entropy =      -35.23406699  energy(sigma->0) =      -35.23406699


--------------------------------------------------------------------------------------------------------




----------------------------------------- Iteration    1(   8)  ---------------------------------------


    POTLOK:  cpu time   31.3832: real time   31.4458
    SETDIJ:  cpu time    0.0070: real time    0.0068
     EDDAV:  cpu time   96.5733: real time   96.7697
       DOS:  cpu time    0.0000: real time    0.0001
    CHARGE:  cpu time    5.6131: real time    5.6252
    MIXING:  cpu time    1.1228: real time    1.1253
    --------------------------------------------
      LOOP:  cpu time  134.7015: real time  134.9769

 eigenvalue-minimisations  :   128
 total energy-change (2. order) : 0.8623765E-01  (-0.2258988E-01)
 number of electron      15.9999996 magnetization 
 augmentation part        0.4392766 magnetization 

 Broyden mixing:
  rms(total) = 0.98964E-01    rms(broyden)= 0.98935E-01
  rms(prec ) = 0.10255E+00
  weight for this iteration     100.00

 eigenvalues of (default mixing * dielectric matrix)
  average eigenvalue GAMMA=   1.5797
  2.3222  1.6199  0.7971

 Free energy of the ion-electron system (eV)
  ---------------------------------------------------
  alpha Z        PSCENC =         0.04144063
  Ewald energy   TEWEN  =       710.45389671
  -Hartree energ DENC   =     -1181.00146413
  -exchange      EXHF   =         0.00000000
  -V(xc)+E(xc)   XCENC  =        54.69203190
  PAW double counting   =      1245.51363186    -1248.40717768
  entropy T*S    EENTRO =         0.00000000
  eigenvalues    EBANDS =      -212.60553678
  atomic energy  EATOM  =       596.16534815
  Solvation  Ediel_sol  =         0.00000000
  ---------------------------------------------------
  free energy    TOTEN  =       -35.14782934 eV

  energy without entropy =      -35.14782934  energy(sigma->0) =      -35.14782934


--------------------------------------------------------------------------------------------------------




----------------------------------------- Iteration    1(   9)  ---------------------------------------


    POTLOK:  cpu time   38.6721: real time   38.7517
    SETDIJ:  cpu time    0.0070: real time    0.0070
     EDDAV:  cpu time   76.1554: real time   76.3114
       DOS:  cpu time    0.0000: real time    0.0002
    CHARGE:  cpu time    5.6751: real time    5.6874
    MIXING:  cpu time    1.2628: real time    1.2652
    --------------------------------------------
      LOOP:  cpu time  121.7755: real time  122.0278

 eigenvalue-minimisations  :    96
 total energy-change (2. order) : 0.1837054E-01  (-0.3404994E-02)
 number of electron      15.9999996 magnetization 
 augmentation part        0.4394687 magnetization 

 Broyden mixing:
  rms(total) = 0.24672E-01    rms(broyden)= 0.24655E-01
  rms(prec ) = 0.29414E-01
  weight for this iteration     100.00

 eigenvalues of (default mixing * dielectric matrix)
  average eigenvalue GAMMA=   1.4734
  2.2607  1.6796  0.8473  1.1058

 Free energy of the ion-electron system (eV)
  ---------------------------------------------------
  alpha Z        PSCENC =         0.04144063
  Ewald energy   TEWEN  =       710.45389671
  -Hartree energ DENC   =     -1182.14568421
  -exchange      EXHF   =         0.00000000
  -V(xc)+E(xc)   XCENC  =        54.77691697
  PAW double counting   =      1317.51727370    -1320.38002838
  entropy T*S    EENTRO =         0.00000000
  eigenvalues    EBANDS =      -211.55862236
  atomic energy  EATOM  =       596.16534815
  Solvation  Ediel_sol  =         0.00000000
  ---------------------------------------------------
  free energy    TOTEN  =       -35.12945880 eV

  energy without entropy =      -35.12945880  energy(sigma->0) =      -35.12945880


--------------------------------------------------------------------------------------------------------




----------------------------------------- Iteration    1(  10)  ---------------------------------------


    POTLOK:  cpu time   38.2752: real time   38.3527
    SETDIJ:  cpu time    0.0060: real time    0.0068
     EDDAV:  cpu time   92.8289: real time   93.0182
       DOS:  cpu time    0.0000: real time    0.0002
    CHARGE:  cpu time    5.3042: real time    5.3158
    MIXING:  cpu time    1.1488: real time    1.1512
    --------------------------------------------
      LOOP:  cpu time  137.5671: real time  137.8498

 eigenvalue-minimisations  :   124
 total energy-change (2. order) : 0.4728514E-03  (-0.4636121E-03)
 number of electron      15.9999996 magnetization 
 augmentation part        0.4405745 magnetization 

 Broyden mixing:
  rms(total) = 0.13037E-01    rms(broyden)= 0.13031E-01
  rms(prec ) = 0.18093E-01
  weight for this iteration     100.00

 eigenvalues of (default mixing * dielectric matrix)
  average eigenvalue GAMMA=   1.4915
  2.1508  2.1508  0.9194  0.9194  1.3173

 Free energy of the ion-electron system (eV)
  ---------------------------------------------------
  alpha Z        PSCENC =         0.04144063
  Ewald energy   TEWEN  =       710.45389671
  -Hartree energ DENC   =     -1182.93568526
  -exchange      EXHF   =         0.00000000
  -V(xc)+E(xc)   XCENC  =        54.79642438
  PAW double counting   =      1315.65020841    -1318.50966386
  entropy T*S    EENTRO =         0.00000000
  eigenvalues    EBANDS =      -210.79095509
  atomic energy  EATOM  =       596.16534815
  Solvation  Ediel_sol  =         0.00000000
  ---------------------------------------------------
  free energy    TOTEN  =       -35.12898595 eV

  energy without entropy =      -35.12898595  energy(sigma->0) =      -35.12898595


--------------------------------------------------------------------------------------------------------




----------------------------------------- Iteration    1(  11)  ---------------------------------------


    POTLOK:  cpu time   31.8112: real time   31.8754
    SETDIJ:  cpu time    0.0070: real time    0.0069
     EDDAV:  cpu time   72.9549: real time   73.1019
       DOS:  cpu time    0.0000: real time    0.0002
    CHARGE:  cpu time    5.5452: real time    5.5568
    MIXING:  cpu time    1.3108: real time    1.3139
    --------------------------------------------
      LOOP:  cpu time  111.6300: real time  111.8594

 eigenvalue-minimisations  :    96
 total energy-change (2. order) :-0.1681281E-02  (-0.1231365E-03)
 number of electron      15.9999996 magnetization 
 augmentation part        0.4402018 magnetization 

 Broyden mixing:
  rms(total) = 0.76191E-02    rms(broyden)= 0.76181E-02
  rms(prec ) = 0.12133E-01
  weight for this iteration     100.00

 eigenvalues of (default mixing * dielectric matrix)
  average eigenvalue GAMMA=   1.6136
  2.5833  2.5833  1.3336  1.3336  0.8904  0.9574

 Free energy of the ion-electron system (eV)
  ---------------------------------------------------
  alpha Z        PSCENC =         0.04144063
  Ewald energy   TEWEN  =       710.45389671
  -Hartree energ DENC   =     -1183.94411368
  -exchange      EXHF   =         0.00000000
  -V(xc)+E(xc)   XCENC  =        54.82354175
  PAW double counting   =      1313.40537639    -1316.26269960
  entropy T*S    EENTRO =         0.00000000
  eigenvalues    EBANDS =      -209.81345757
  atomic energy  EATOM  =       596.16534815
  Solvation  Ediel_sol  =         0.00000000
  ---------------------------------------------------
  free energy    TOTEN  =       -35.13066723 eV

  energy without entropy =      -35.13066723  energy(sigma->0) =      -35.13066723


--------------------------------------------------------------------------------------------------------




----------------------------------------- Iteration    1(  12)  ---------------------------------------


    POTLOK:  cpu time   33.6709: real time   33.7409
    SETDIJ:  cpu time    0.0070: real time    0.0069
     EDDAV:  cpu time   78.4891: real time   78.6487
       DOS:  cpu time    0.0010: real time    0.0002
    CHARGE:  cpu time    5.6611: real time    5.6736
    MIXING:  cpu time    1.3758: real time    1.3791
    --------------------------------------------
      LOOP:  cpu time  119.2069: real time  119.4532

 eigenvalue-minimisations  :   104
 total energy-change (2. order) :-0.4518592E-02  (-0.2314475E-03)
 number of electron      15.9999996 magnetization 
 augmentation part        0.4399694 magnetization 

 Broyden mixing:
  rms(total) = 0.42720E-02    rms(broyden)= 0.42670E-02
  rms(prec ) = 0.70113E-02
  weight for this iteration     100.00

 eigenvalues of (default mixing * dielectric matrix)
  average eigenvalue GAMMA=   1.6882
  3.4306  2.3670  1.5612  1.5612  0.8843  1.0066  1.0066

 Free energy of the ion-electron system (eV)
  ---------------------------------------------------
  alpha Z        PSCENC =         0.04144063
  Ewald energy   TEWEN  =       710.45389671
  -Hartree energ DENC   =     -1185.16641467
  -exchange      EXHF   =         0.00000000
  -V(xc)+E(xc)   XCENC  =        54.85313306
  PAW double counting   =      1310.80215871    -1313.65713636
  entropy T*S    EENTRO =         0.00000000
  eigenvalues    EBANDS =      -208.62761204
  atomic energy  EATOM  =       596.16534815
  Solvation  Ediel_sol  =         0.00000000
  ---------------------------------------------------
  free energy    TOTEN  =       -35.13518582 eV

  energy without entropy =      -35.13518582  energy(sigma->0) =      -35.13518582


--------------------------------------------------------------------------------------------------------




----------------------------------------- Iteration    1(  13)  ---------------------------------------


    POTLOK:  cpu time   33.7779: real time   33.8456
    SETDIJ:  cpu time    0.0070: real time    0.0069
     EDDAV:  cpu time   99.1819: real time   99.3887
       DOS:  cpu time    0.0010: real time    0.0002
    CHARGE:  cpu time    5.6061: real time    5.6171
    MIXING:  cpu time    1.6468: real time    1.6504
    --------------------------------------------
      LOOP:  cpu time  140.2227: real time  140.5127

 eigenvalue-minimisations  :   144
 total energy-change (2. order) :-0.4911631E-02  (-0.1298251E-03)
 number of electron      15.9999996 magnetization 
 augmentation part        0.4397269 magnetization 

 Broyden mixing:
  rms(total) = 0.27545E-02    rms(broyden)= 0.27523E-02
  rms(prec ) = 0.43063E-02
  weight for this iteration     100.00

 eigenvalues of (default mixing * dielectric matrix)
  average eigenvalue GAMMA=   1.8797
  4.8164  2.5519  1.9400  1.6874  0.8844  0.8844  1.1363  1.1363

 Free energy of the ion-electron system (eV)
  ---------------------------------------------------
  alpha Z        PSCENC =         0.04144063
  Ewald energy   TEWEN  =       710.45389671
  -Hartree energ DENC   =     -1185.83449840
  -exchange      EXHF   =         0.00000000
  -V(xc)+E(xc)   XCENC  =        54.86370726
  PAW double counting   =      1310.28794648    -1313.14277276
  entropy T*S    EENTRO =         0.00000000
  eigenvalues    EBANDS =      -207.97516552
  atomic energy  EATOM  =       596.16534815
  Solvation  Ediel_sol  =         0.00000000
  ---------------------------------------------------
  free energy    TOTEN  =       -35.14009745 eV

  energy without entropy =      -35.14009745  energy(sigma->0) =      -35.14009745


--------------------------------------------------------------------------------------------------------




----------------------------------------- Iteration    1(  14)  ---------------------------------------


    POTLOK:  cpu time   35.0967: real time   35.1671
    SETDIJ:  cpu time    0.0070: real time    0.0068
     EDDAV:  cpu time   89.0005: real time   89.1927
       DOS:  cpu time    0.0010: real time    0.0002
    CHARGE:  cpu time    5.6961: real time    5.7118
    MIXING:  cpu time    1.7527: real time    1.7569
    --------------------------------------------
      LOOP:  cpu time  131.5550: real time  131.8403

 eigenvalue-minimisations  :   124
 total energy-change (2. order) :-0.4120853E-02  (-0.5792996E-04)
 number of electron      15.9999996 magnetization 
 augmentation part        0.4397385 magnetization 

 Broyden mixing:
  rms(total) = 0.17402E-02    rms(broyden)= 0.17398E-02
  rms(prec ) = 0.25063E-02
  weight for this iteration     100.00

 eigenvalues of (default mixing * dielectric matrix)
  average eigenvalue GAMMA=   1.8405
  5.0364  2.4063  2.4063  1.4166  1.2855  1.2855  0.8601  0.9340  0.9340

 Free energy of the ion-electron system (eV)
  ---------------------------------------------------
  alpha Z        PSCENC =         0.04144063
  Ewald energy   TEWEN  =       710.45389671
  -Hartree energ DENC   =     -1186.12565084
  -exchange      EXHF   =         0.00000000
  -V(xc)+E(xc)   XCENC  =        54.85969734
  PAW double counting   =      1308.40248473    -1311.25692534
  entropy T*S    EENTRO =         0.00000000
  eigenvalues    EBANDS =      -207.68450969
  atomic energy  EATOM  =       596.16534815
  Solvation  Ediel_sol  =         0.00000000
  ---------------------------------------------------
  free energy    TOTEN  =       -35.14421831 eV

  energy without entropy =      -35.14421831  energy(sigma->0) =      -35.14421831


--------------------------------------------------------------------------------------------------------




----------------------------------------- Iteration    1(  15)  ---------------------------------------


    POTLOK:  cpu time   34.7657: real time   34.8368
    SETDIJ:  cpu time    0.0070: real time    0.0070
     EDDAV:  cpu time   93.2488: real time   93.4404
       DOS:  cpu time    0.0000: real time    0.0002
    CHARGE:  cpu time    5.5162: real time    5.5271
    MIXING:  cpu time    1.8477: real time    1.8501
    --------------------------------------------
      LOOP:  cpu time  135.3874: real time  135.6661

 eigenvalue-minimisations  :   128
 total energy-change (2. order) :-0.1661344E-02  (-0.1263230E-04)
 number of electron      15.9999996 magnetization 
 augmentation part        0.4397313 magnetization 

 Broyden mixing:
  rms(total) = 0.11096E-02    rms(broyden)= 0.11094E-02
  rms(prec ) = 0.17547E-02
  weight for this iteration     100.00

 eigenvalues of (default mixing * dielectric matrix)
  average eigenvalue GAMMA=   2.0614
  6.3500  3.3131  2.4346  2.0591  1.4716  1.2489  1.0896  0.9068  0.9068  0.8340

 Free energy of the ion-electron system (eV)
  ---------------------------------------------------
  alpha Z        PSCENC =         0.04144063
  Ewald energy   TEWEN  =       710.45389671
  -Hartree energ DENC   =     -1186.18636139
  -exchange      EXHF   =         0.00000000
  -V(xc)+E(xc)   XCENC  =        54.85902650
  PAW double counting   =      1308.97928463    -1311.83414025
  entropy T*S    EENTRO =         0.00000000
  eigenvalues    EBANDS =      -207.62437463
  atomic energy  EATOM  =       596.16534815
  Solvation  Ediel_sol  =         0.00000000
  ---------------------------------------------------
  free energy    TOTEN  =       -35.14587965 eV

  energy without entropy =      -35.14587965  energy(sigma->0) =      -35.14587965


--------------------------------------------------------------------------------------------------------




----------------------------------------- Iteration    1(  16)  ---------------------------------------


    POTLOK:  cpu time   29.0616: real time   29.1207
    SETDIJ:  cpu time    0.0070: real time    0.0069
     EDDAV:  cpu time   88.0686: real time   88.2487
       DOS:  cpu time    0.0000: real time    0.0002
    CHARGE:  cpu time    5.6221: real time    5.6341
    MIXING:  cpu time    2.0787: real time    2.0831
    --------------------------------------------
      LOOP:  cpu time  124.8400: real time  125.0983

 eigenvalue-minimisations  :   120
 total energy-change (2. order) :-0.2548837E-02  (-0.3088244E-04)
 number of electron      15.9999996 magnetization 
 augmentation part        0.4397336 magnetization 

 Broyden mixing:
  rms(total) = 0.54679E-03    rms(broyden)= 0.54658E-03
  rms(prec ) = 0.78045E-03
  weight for this iteration     100.00

 eigenvalues of (default mixing * dielectric matrix)
  average eigenvalue GAMMA=   2.0712
  7.1309  3.4794  2.2958  2.2958  1.5127  1.2497  1.2497  0.9484  0.9484  0.8786
  0.7941

 Free energy of the ion-electron system (eV)
  ---------------------------------------------------
  alpha Z        PSCENC =         0.04144063
  Ewald energy   TEWEN  =       710.45389671
  -Hartree energ DENC   =     -1186.23662623
  -exchange      EXHF   =         0.00000000
  -V(xc)+E(xc)   XCENC  =        54.85411068
  PAW double counting   =      1309.02959018    -1311.88445317
  entropy T*S    EENTRO =         0.00000000
  eigenvalues    EBANDS =      -207.57173543
  atomic energy  EATOM  =       596.16534815
  Solvation  Ediel_sol  =         0.00000000
  ---------------------------------------------------
  free energy    TOTEN  =       -35.14842849 eV

  energy without entropy =      -35.14842849  energy(sigma->0) =      -35.14842849


--------------------------------------------------------------------------------------------------------




----------------------------------------- Iteration    1(  17)  ---------------------------------------


    POTLOK:  cpu time   35.1267: real time   35.1985
    SETDIJ:  cpu time    0.0070: real time    0.0070
     EDDAV:  cpu time   73.6828: real time   73.8520
       DOS:  cpu time    0.0000: real time    0.0002
    CHARGE:  cpu time    5.6071: real time    5.6190
    MIXING:  cpu time    2.1597: real time    2.1644
    --------------------------------------------
      LOOP:  cpu time  116.5853: real time  116.8452

 eigenvalue-minimisations  :    96
 total energy-change (2. order) :-0.4666830E-03  (-0.1761102E-05)
 number of electron      15.9999996 magnetization 
 augmentation part        0.4397292 magnetization 

 Broyden mixing:
  rms(total) = 0.36818E-03    rms(broyden)= 0.36813E-03
  rms(prec ) = 0.54042E-03
  weight for this iteration     100.00

 eigenvalues of (default mixing * dielectric matrix)
  average eigenvalue GAMMA=   2.2458
  7.9927  4.3998  2.6204  2.5089  1.9112  1.5700  1.1965  1.1965  0.9254  0.9254
  0.8971  0.8054

 Free energy of the ion-electron system (eV)
  ---------------------------------------------------
  alpha Z        PSCENC =         0.04144063
  Ewald energy   TEWEN  =       710.45389671
  -Hartree energ DENC   =     -1186.24051180
  -exchange      EXHF   =         0.00000000
  -V(xc)+E(xc)   XCENC  =        54.85310797
  PAW double counting   =      1308.91719392    -1311.77198750
  entropy T*S    EENTRO =         0.00000000
  eigenvalues    EBANDS =      -207.56738324
  atomic energy  EATOM  =       596.16534815
  Solvation  Ediel_sol  =         0.00000000
  ---------------------------------------------------
  free energy    TOTEN  =       -35.14889517 eV

  energy without entropy =      -35.14889517  energy(sigma->0) =      -35.14889517


--------------------------------------------------------------------------------------------------------




----------------------------------------- Iteration    1(  18)  ---------------------------------------


    POTLOK:  cpu time   34.1998: real time   34.2698
    SETDIJ:  cpu time    0.0070: real time    0.0068
     EDDAV:  cpu time   68.4116: real time   68.5512
       DOS:  cpu time    0.0010: real time    0.0002
    CHARGE:  cpu time    5.4392: real time    5.4509
    MIXING:  cpu time    2.1917: real time    2.1963
    --------------------------------------------
      LOOP:  cpu time  110.2522: real time  110.4787

 eigenvalue-minimisations  :    84
 total energy-change (2. order) :-0.5915038E-03  (-0.4287084E-05)
 number of electron      15.9999996 magnetization 
 augmentation part        0.4397296 magnetization 

 Broyden mixing:
  rms(total) = 0.17057E-03    rms(broyden)= 0.17055E-03
  rms(prec ) = 0.23913E-03
  weight for this iteration     100.00

 eigenvalues of (default mixing * dielectric matrix)
  average eigenvalue GAMMA=   2.2698
  8.2046  4.9918  2.7402  2.3741  2.3741  1.4665  1.3847  1.3847  0.9763  0.9763
  0.9116  0.9116  0.8110

 Free energy of the ion-electron system (eV)
  ---------------------------------------------------
  alpha Z        PSCENC =         0.04144063
  Ewald energy   TEWEN  =       710.45389671
  -Hartree energ DENC   =     -1186.22962250
  -exchange      EXHF   =         0.00000000
  -V(xc)+E(xc)   XCENC  =        54.85170230
  PAW double counting   =      1309.06029531    -1311.91499079
  entropy T*S    EENTRO =         0.00000000
  eigenvalues    EBANDS =      -207.57755647
  atomic energy  EATOM  =       596.16534815
  Solvation  Ediel_sol  =         0.00000000
  ---------------------------------------------------
  free energy    TOTEN  =       -35.14948667 eV

  energy without entropy =      -35.14948667  energy(sigma->0) =      -35.14948667


--------------------------------------------------------------------------------------------------------




----------------------------------------- Iteration    1(  19)  ---------------------------------------


    POTLOK:  cpu time   27.6228: real time   27.6894
    SETDIJ:  cpu time    0.0060: real time    0.0069
     EDDAV:  cpu time   74.0667: real time   74.2549
       DOS:  cpu time    0.0000: real time    0.0002
    CHARGE:  cpu time    5.5432: real time    5.5548
    MIXING:  cpu time    2.4506: real time    2.4559
    --------------------------------------------
      LOOP:  cpu time  109.6913: real time  109.9658

 eigenvalue-minimisations  :    96
 total energy-change (2. order) :-0.1483759E-03  (-0.1205447E-05)
 number of electron      15.9999996 magnetization 
 augmentation part        0.4397242 magnetization 

 Broyden mixing:
  rms(total) = 0.12782E-03    rms(broyden)= 0.12780E-03
  rms(prec ) = 0.16213E-03
  weight for this iteration     100.00

 eigenvalues of (default mixing * dielectric matrix)
  average eigenvalue GAMMA=   2.3592
  8.8463  5.4181  3.5081  2.6160  2.2301  1.9555  1.5501  1.2213  1.1121  1.0588
  0.9201  0.9201  0.8699  0.8027

 Free energy of the ion-electron system (eV)
  ---------------------------------------------------
  alpha Z        PSCENC =         0.04144063
  Ewald energy   TEWEN  =       710.45389671
  -Hartree energ DENC   =     -1186.23088985
  -exchange      EXHF   =         0.00000000
  -V(xc)+E(xc)   XCENC  =        54.85172006
  PAW double counting   =      1309.09064852    -1311.94543653
  entropy T*S    EENTRO =         0.00000000
  eigenvalues    EBANDS =      -207.57636275
  atomic energy  EATOM  =       596.16534815
  Solvation  Ediel_sol  =         0.00000000
  ---------------------------------------------------
  free energy    TOTEN  =       -35.14963505 eV

  energy without entropy =      -35.14963505  energy(sigma->0) =      -35.14963505


--------------------------------------------------------------------------------------------------------




----------------------------------------- Iteration    1(  20)  ---------------------------------------


    POTLOK:  cpu time   32.1021: real time   32.1680
    SETDIJ:  cpu time    0.0070: real time    0.0063
     EDDAV:  cpu time   62.8175: real time   62.9448
       DOS:  cpu time    0.0000: real time    0.0002
    --------------------------------------------
      LOOP:  cpu time   94.9286: real time   95.1236

 eigenvalue-minimisations  :    80
 total energy-change (2. order) :-0.8893963E-04  (-0.4569996E-06)
 number of electron      15.9999996 magnetization 
 augmentation part        0.4397242 magnetization 

 Free energy of the ion-electron system (eV)
  ---------------------------------------------------
  alpha Z        PSCENC =         0.04144063
  Ewald energy   TEWEN  =       710.45389671
  -Hartree energ DENC   =     -1186.23408644
  -exchange      EXHF   =         0.00000000
  -V(xc)+E(xc)   XCENC  =        54.85161638
  PAW double counting   =      1308.96939152    -1311.82418650
  entropy T*S    EENTRO =         0.00000000
  eigenvalues    EBANDS =      -207.57314442
  atomic energy  EATOM  =       596.16534815
  Solvation  Ediel_sol  =         0.00000000
  ---------------------------------------------------
  free energy    TOTEN  =       -35.14972399 eV

  energy without entropy =      -35.14972399  energy(sigma->0) =      -35.14972399


--------------------------------------------------------------------------------------------------------




 average (electrostatic) potential at core
  the test charge radii are     0.5201  0.6991  0.7089
  (the norm of the test charge is              1.0000)
       1 -42.9018       2 -42.9035       3 -42.8630       4 -60.3269       5 -59.6810
       6 -74.6669
 
 
 
 E-fermi :  -6.2542     XC(G=0):  -0.0911     alpha+bet : -0.0137


 k-point     1 :       0.2500    0.2500    0.2500
  band No.  band energies     occupation 
      1     -24.1387      2.00000
      2     -18.6648      2.00000
      3     -13.4264      2.00000
      4     -11.6698      2.00000
      5     -11.6501      2.00000
      6      -8.7677      2.00000
      7      -8.2507      2.00000
      8      -7.2184      2.00000
      9      -2.1809      0.00000
     10      -0.9275      0.00000
     11      -0.4273      0.00000
     12      -0.0070      0.00000

 k-point     2 :      -0.2500    0.2500    0.2500
  band No.  band energies     occupation 
      1     -24.1387      2.00000
      2     -18.6648      2.00000
      3     -13.4264      2.00000
      4     -11.6698      2.00000
      5     -11.6501      2.00000
      6      -8.7677      2.00000
      7      -8.2507      2.00000
      8      -7.2184      2.00000
      9      -2.1809      0.00000
     10      -0.9275      0.00000
     11      -0.4273      0.00000
     12      -0.0035      0.00000

 k-point     3 :       0.2500   -0.2500    0.2500
  band No.  band energies     occupation 
      1     -24.1387      2.00000
      2     -18.6648      2.00000
      3     -13.4264      2.00000
      4     -11.6698      2.00000
      5     -11.6501      2.00000
      6      -8.7677      2.00000
      7      -8.2507      2.00000
      8      -7.2184      2.00000
      9      -2.1809      0.00000
     10      -0.9275      0.00000
     11      -0.4274      0.00000
     12      -0.0014      0.00000

 k-point     4 :      -0.2500   -0.2500    0.2500
  band No.  band energies     occupation 
      1     -24.1387      2.00000
      2     -18.6648      2.00000
      3     -13.4264      2.00000
      4     -11.6698      2.00000
      5     -11.6501      2.00000
      6      -8.7677      2.00000
      7      -8.2507      2.00000
      8      -7.2184      2.00000
      9      -2.1809      0.00000
     10      -0.9275      0.00000
     11      -0.4274      0.00000
     12      -0.0007      0.00000


--------------------------------------------------------------------------------------------------------


 soft charge-density along one line, spin component           1
         0         1         2         3         4         5         6         7         8         9
 total charge-density along one line
 
 pseudopotential strength for first ion, spin component:           1
 -2.360  -4.070  -0.002   0.000   0.000
 -4.070  -6.933  -0.005   0.001  -0.002
 -0.002  -0.005  -0.330  -0.001   0.001
  0.000   0.001  -0.001  -0.334   0.000
  0.000  -0.002   0.001   0.000  -0.334
 total augmentation occupancy for first ion, spin component:           1
  3.537  -0.637   0.427  -0.063   0.116
 -0.637   0.132  -0.078   0.012  -0.021
  0.427  -0.078   0.052  -0.006   0.012
 -0.063   0.012  -0.006   0.010  -0.002
  0.116  -0.021   0.012  -0.002   0.009


------------------------ aborting loop because EDIFF is reached ----------------------------------------


    CHARGE:  cpu time    5.5362: real time    5.5474
    FORLOC:  cpu time    3.0585: real time    3.0652
    FORNL :  cpu time   15.8366: real time   15.8683
    STRESS:  cpu time   50.0974: real time   50.2017
    FORCOR:  cpu time   30.9093: real time   30.9886
    FORHAR:  cpu time   11.7752: real time   11.8038
    MIXING:  cpu time    2.7776: real time    2.7844
    OFIELD:  cpu time    0.0000: real time    0.0000

  FORCE on cell =-STRESS in cart. coord.  units (eV):
  Direction    XX          YY          ZZ          XY          YZ          ZX
  --------------------------------------------------------------------------------------
  Alpha Z     0.04144     0.04144     0.04144
  Ewald     500.50189    97.69384   112.25815   -91.78524    64.28214  -104.03765
  Hartree   552.29761   314.23833   319.69198   -38.83040    23.94000   -44.27078
  E(xc)     -59.23542   -59.99428   -59.94431    -0.29481     0.22091    -0.33217
  Local   -1204.45425  -581.15260  -599.64217   124.21828   -81.41904   141.08910
  n-local   -23.80230   -24.94226   -25.24168     2.30067    -1.32206     2.57004
  augment     0.58798     0.91533     0.90632     0.05884    -0.02866     0.05761
  Kinetic   235.61961   252.16922   250.88282     3.59758    -5.78121     4.09890
  Fock        0.00000     0.00000     0.00000     0.00000     0.00000     0.00000
  -------------------------------------------------------------------------------------
  Total       1.55655    -1.03098    -1.04744    -0.73507    -0.10791    -0.82495
  in kB       0.09237    -0.06118    -0.06216    -0.04362    -0.00640    -0.04895
  external pressure =       -0.01 kB  Pullay stress =        0.00 kB


 VOLUME and BASIS-vectors are now :
 -----------------------------------------------------------------------------
  energy-cutoff  :      400.00
  volume of cell :    27000.00
      direct lattice vectors                 reciprocal lattice vectors
    30.000000000  0.000000000  0.000000000     0.033333333  0.000000000  0.000000000
     0.000000000 30.000000000  0.000000000     0.000000000  0.033333333  0.000000000
     0.000000000  0.000000000 30.000000000     0.000000000  0.000000000  0.033333333

  length of vectors
    30.000000000 30.000000000 30.000000000     0.033333333  0.033333333  0.033333333


 FORCES acting on ions
    electron-ion (+dipol)            ewald-force                    non-local-force                 convergence-correction
 -----------------------------------------------------------------------------------------------
   0.314E+02 0.589E+02 -.992E+01   -.330E+02 -.643E+02 0.108E+02   0.147E+01 0.546E+01 -.792E+00   0.520E-04 -.247E-04 -.393E-05
   0.317E+02 -.170E+02 0.571E+02   -.334E+02 0.186E+02 -.623E+02   0.150E+01 -.145E+01 0.532E+01   0.519E-04 -.123E-05 -.245E-04
   0.391E+02 -.366E+02 -.417E+02   -.420E+02 0.403E+02 0.458E+02   0.259E+01 -.351E+01 -.399E+01   0.378E-04 0.117E-04 0.137E-04
   0.122E+03 -.311E+01 -.400E+01   -.129E+03 0.280E+01 0.369E+01   0.744E+01 0.453E+00 0.469E+00   0.775E-03 -.151E-04 -.161E-04
   -.188E+03 0.919E+02 0.103E+03   0.206E+03 -.104E+03 -.117E+03   -.159E+02 0.123E+02 0.138E+02   -.912E-03 0.561E-03 0.632E-03
   -.314E+02 -.943E+02 -.105E+03   0.321E+02 0.107E+03 0.119E+03   -.141E+01 -.129E+02 -.144E+02   0.101E-02 -.483E-03 -.541E-03
 -----------------------------------------------------------------------------------------------
   0.427E+01 -.321E+00 -.377E+00   0.000E+00 0.000E+00 0.000E+00   -.427E+01 0.324E+00 0.377E+00   0.101E-02 0.482E-04 0.603E-04
 
 
 POSITION                                       TOTAL-FORCE (eV/Angst)
 -----------------------------------------------------------------------------------
     14.26983     14.03009     15.24808        -0.155123      0.074259      0.132980
     14.26384     15.36481     14.06954        -0.157621      0.124332      0.089170
     14.07730     15.72516     15.82380        -0.263076      0.138848      0.156785
     14.55080     15.07944     15.08989        -0.141697      0.140898      0.156986
     16.84763     14.62791     14.57810         1.382370      0.092225      0.097386
     15.99041     15.17382     15.18890        -0.664853     -0.570563     -0.633308
 -----------------------------------------------------------------------------------
    total drift:                                0.004870      0.003099      0.000821


--------------------------------------------------------------------------------------------------------



  FREE ENERGIE OF THE ION-ELECTRON SYSTEM (eV)
  ---------------------------------------------------
  free  energy   TOTEN  =       -35.14972399 eV

  energy  without entropy=      -35.14972399  energy(sigma->0) =      -35.14972399
 


--------------------------------------------------------------------------------------------------------


    POTLOK:  cpu time   33.4449: real time   33.5133


--------------------------------------------------------------------------------------------------------


 NEB: the previous image is higher in energy: F
 NEB: the next image is higher in energy    : T
 NEB: only next energy greater

 NEB: Tangent
 ----------------------------------------------
      0.01345     -0.08217     -0.03767
      0.01165     -0.03559     -0.08435
      0.24591     -0.06339     -0.07181
      0.06355     -0.12305     -0.13603
     -0.71083     -0.01772     -0.02227
      0.37739      0.31986      0.35353

 NEB: forces: par spring, perp REAL, dneb     0.043675    0.345485    0.000000
 NEB: distance to prev, next image, angle between     0.776050    0.767315  114.209556
 NEB: projections on to tangent (spring, REAL)    -0.043675   -1.803160

 stress matrix after NEB project (eV)
      1.55655     -0.73507     -0.82495
     -0.73507     -1.03098     -0.10791
     -0.82495     -0.10791     -1.04744
  FORCES: max atom, RMS     0.174468    0.142166
  FORCE total and by dimension    0.348235    0.169604
  Stress total and by dimension    2.654795    1.556552
 
 OPT: Flag T
 OPT: FIRE Step
 OPT: FIRE, TIMESTEP      0.10000
 OPT: FIRE, alpha         0.10000


--------------------------------------------------------------------------------------------------------


    WAVPRE:  cpu time    8.1858: real time    9.0854
 FEWALD executed in parallel
    FEWALD:  cpu time    0.0010: real time    0.0004
    ORTHCH:  cpu time    6.2570: real time    7.1603
     LOOP+:  cpu time 3187.9124: real time 3196.6057


----------------------------------------- Iteration    2(   1)  ---------------------------------------


    POTLOK:  cpu time   35.4176: real time   38.0842
    SETDIJ:  cpu time    0.0060: real time    0.0063
     EDDAV:  cpu time   87.9096: real time   92.6553
       DOS:  cpu time    0.0000: real time    0.0002
    CHARGE:  cpu time    5.6191: real time    5.8086
    MIXING:  cpu time    0.6639: real time    0.6652
    --------------------------------------------
      LOOP:  cpu time  129.6183: real time  137.2220

 eigenvalue-minimisations  :   124
 total energy-change (2. order) :-0.2044841E-02  (-0.9313654E-03)
 number of electron      15.9999996 magnetization 
 augmentation part        0.4394565 magnetization 

 Broyden mixing:
  rms(total) = 0.29771E-02    rms(broyden)= 0.29600E-02
  rms(prec ) = 0.30277E-02
  weight for this iteration     100.00

 Free energy of the ion-electron system (eV)
  ---------------------------------------------------
  alpha Z        PSCENC =         0.04144063
  Ewald energy   TEWEN  =       710.15875375
  -Hartree energ DENC   =     -1186.01578059
  -exchange      EXHF   =         0.00000000
  -V(xc)+E(xc)   XCENC  =        54.84646200
  PAW double counting   =      1308.99367518    -1311.84844226
  entropy T*S    EENTRO =         0.00000000
  eigenvalues    EBANDS =      -207.49313675
  atomic energy  EATOM  =       596.16534815
  Solvation  Ediel_sol  =         0.00000000
  ---------------------------------------------------
  free energy    TOTEN  =       -35.15167989 eV

  energy without entropy =      -35.15167989  energy(sigma->0) =      -35.15167989


--------------------------------------------------------------------------------------------------------




----------------------------------------- Iteration    2(   2)  ---------------------------------------


    POTLOK:  cpu time   29.9594: real time   30.4778
    SETDIJ:  cpu time    0.0080: real time    0.0071
     EDDAV:  cpu time   79.2380: real time   79.5462
       DOS:  cpu time    0.0000: real time    0.0002
    CHARGE:  cpu time    5.6601: real time    5.6716
    MIXING:  cpu time    0.8839: real time    0.8856
    --------------------------------------------
      LOOP:  cpu time  115.7504: real time  116.5979

 eigenvalue-minimisations  :    96
 total energy-change (2. order) : 0.6422933E-06  (-0.7221256E-05)
 number of electron      15.9999996 magnetization 
 augmentation part        0.4394103 magnetization 

 Broyden mixing:
  rms(total) = 0.16814E-02    rms(broyden)= 0.16801E-02
  rms(prec ) = 0.17135E-02
  weight for this iteration     100.00

 eigenvalues of (default mixing * dielectric matrix)
  average eigenvalue GAMMA=   1.9339
  1.9339

 Free energy of the ion-electron system (eV)
  ---------------------------------------------------
  alpha Z        PSCENC =         0.04144063
  Ewald energy   TEWEN  =       710.15875375
  -Hartree energ DENC   =     -1185.99321825
  -exchange      EXHF   =         0.00000000
  -V(xc)+E(xc)   XCENC  =        54.84537299
  PAW double counting   =      1308.56484231    -1311.41924590
  entropy T*S    EENTRO =         0.00000000
  eigenvalues    EBANDS =      -207.51497292
  atomic energy  EATOM  =       596.16534815
  Solvation  Ediel_sol  =         0.00000000
  ---------------------------------------------------
  free energy    TOTEN  =       -35.15167925 eV

  energy without entropy =      -35.15167925  energy(sigma->0) =      -35.15167925


--------------------------------------------------------------------------------------------------------




----------------------------------------- Iteration    2(   3)  ---------------------------------------


    POTLOK:  cpu time   33.3609: real time   33.4273
    SETDIJ:  cpu time    0.0070: real time    0.0074
     EDDAV:  cpu time   71.1012: real time   71.2445
       DOS:  cpu time    0.0000: real time    0.0002
    CHARGE:  cpu time    5.5182: real time    5.5291
    MIXING:  cpu time    0.9039: real time    0.9066
    --------------------------------------------
      LOOP:  cpu time  110.8931: real time  111.1195

 eigenvalue-minimisations  :    88
 total energy-change (2. order) :-0.1593889E-04  (-0.2153456E-05)
 number of electron      15.9999996 magnetization 
 augmentation part        0.4394491 magnetization 

 Broyden mixing:
  rms(total) = 0.43834E-03    rms(broyden)= 0.43791E-03
  rms(prec ) = 0.44947E-03
  weight for this iteration     100.00

 eigenvalues of (default mixing * dielectric matrix)
  average eigenvalue GAMMA=   1.5374
  1.0343  2.0405

 Free energy of the ion-electron system (eV)
  ---------------------------------------------------
  alpha Z        PSCENC =         0.04144063
  Ewald energy   TEWEN  =       710.15875375
  -Hartree energ DENC   =     -1185.96147951
  -exchange      EXHF   =         0.00000000
  -V(xc)+E(xc)   XCENC  =        54.84382883
  PAW double counting   =      1308.03564204    -1310.88954110
  entropy T*S    EENTRO =         0.00000000
  eigenvalues    EBANDS =      -207.54568797
  atomic energy  EATOM  =       596.16534815
  Solvation  Ediel_sol  =         0.00000000
  ---------------------------------------------------
  free energy    TOTEN  =       -35.15169519 eV

  energy without entropy =      -35.15169519  energy(sigma->0) =      -35.15169519


--------------------------------------------------------------------------------------------------------




----------------------------------------- Iteration    2(   4)  ---------------------------------------


    POTLOK:  cpu time   26.0730: real time   29.9577
    SETDIJ:  cpu time    0.0080: real time    0.0077
     EDDAV:  cpu time   72.7509: real time   77.8926
[...]
  Solvation  Ediel_sol  =         0.00000000
  ---------------------------------------------------
  free energy    TOTEN  =       -35.60726039 eV

  energy without entropy =      -35.60726039  energy(sigma->0) =      -35.60726039


--------------------------------------------------------------------------------------------------------




----------------------------------------- Iteration   74(   2)  ---------------------------------------


    POTLOK:  cpu time   22.0157: real time   22.0586
    SETDIJ:  cpu time    0.0060: real time    0.0064
     EDDAV:  cpu time   64.8711: real time   65.0203
       DOS:  cpu time    0.0000: real time    0.0002
    CHARGE:  cpu time    5.3352: real time    5.3453
    MIXING:  cpu time    0.6169: real time    0.6190
    --------------------------------------------
      LOOP:  cpu time   92.8459: real time   93.0531

 eigenvalue-minimisations  :   112
 total energy-change (2. order) :-0.8254009E-05  (-0.1532203E-04)
 number of electron      15.9999998 magnetization 
 augmentation part        0.4509918 magnetization 

 Broyden mixing:
  rms(total) = 0.14495E-02    rms(broyden)= 0.14477E-02
  rms(prec ) = 0.14735E-02
  weight for this iteration     100.00

 eigenvalues of (default mixing * dielectric matrix)
  average eigenvalue GAMMA=   0.9542
  0.9542

 Free energy of the ion-electron system (eV)
  ---------------------------------------------------
  alpha Z        PSCENC =         0.04144063
  Ewald energy   TEWEN  =       705.47813398
  -Hartree energ DENC   =     -1180.35352645
  -exchange      EXHF   =         0.00000000
  -V(xc)+E(xc)   XCENC  =        54.90355627
  PAW double counting   =      1335.89709048    -1338.76900593
  entropy T*S    EENTRO =         0.00000000
  eigenvalues    EBANDS =      -208.97030578
  atomic energy  EATOM  =       596.16534815
  Solvation  Ediel_sol  =         0.00000000
  ---------------------------------------------------
  free energy    TOTEN  =       -35.60726864 eV

  energy without entropy =      -35.60726864  energy(sigma->0) =      -35.60726864


--------------------------------------------------------------------------------------------------------




----------------------------------------- Iteration   74(   3)  ---------------------------------------


    POTLOK:  cpu time   20.0620: real time   20.1025
    SETDIJ:  cpu time    0.0070: real time    0.0064
     EDDAV:  cpu time   41.9796: real time   42.0612
       DOS:  cpu time    0.0000: real time    0.0002
    CHARGE:  cpu time    5.1102: real time    5.1204
    MIXING:  cpu time    0.6319: real time    0.6326
    --------------------------------------------
      LOOP:  cpu time   67.7917: real time   67.9271

 eigenvalue-minimisations  :    64
 total energy-change (2. order) : 0.1279838E-05  (-0.6952897E-06)
 number of electron      15.9999998 magnetization 
 augmentation part        0.4509520 magnetization 

 Broyden mixing:
  rms(total) = 0.82303E-03    rms(broyden)= 0.82284E-03
  rms(prec ) = 0.83365E-03
  weight for this iteration     100.00

 eigenvalues of (default mixing * dielectric matrix)
  average eigenvalue GAMMA=   1.3802
  1.0491  1.7113

 Free energy of the ion-electron system (eV)
  ---------------------------------------------------
  alpha Z        PSCENC =         0.04144063
  Ewald energy   TEWEN  =       705.47813398
  -Hartree energ DENC   =     -1180.36638318
  -exchange      EXHF   =         0.00000000
  -V(xc)+E(xc)   XCENC  =        54.90426449
  PAW double counting   =      1336.13061232    -1339.00270629
  entropy T*S    EENTRO =         0.00000000
  eigenvalues    EBANDS =      -208.95797745
  atomic energy  EATOM  =       596.16534815
  Solvation  Ediel_sol  =         0.00000000
  ---------------------------------------------------
  free energy    TOTEN  =       -35.60726736 eV

  energy without entropy =      -35.60726736  energy(sigma->0) =      -35.60726736


--------------------------------------------------------------------------------------------------------




----------------------------------------- Iteration   74(   4)  ---------------------------------------


    POTLOK:  cpu time   20.8268: real time   20.8782
    SETDIJ:  cpu time    0.0070: real time    0.0066
     EDDAV:  cpu time   57.5992: real time   57.7416
       DOS:  cpu time    0.0000: real time    0.0002
    CHARGE:  cpu time    5.1212: real time    5.1321
    MIXING:  cpu time    0.7839: real time    0.7848
    --------------------------------------------
      LOOP:  cpu time   84.3392: real time   84.5474

 eigenvalue-minimisations  :    96
 total energy-change (2. order) :-0.9429115E-06  (-0.2785270E-06)
 number of electron      15.9999998 magnetization 
 augmentation part        0.4509457 magnetization 

 Broyden mixing:
  rms(total) = 0.26944E-03    rms(broyden)= 0.26934E-03
  rms(prec ) = 0.27209E-03
  weight for this iteration     100.00

 eigenvalues of (default mixing * dielectric matrix)
  average eigenvalue GAMMA=   1.4670
  2.1397  1.3892  0.8721

 Free energy of the ion-electron system (eV)
  ---------------------------------------------------
  alpha Z        PSCENC =         0.04144063
  Ewald energy   TEWEN  =       705.47813398
  -Hartree energ DENC   =     -1180.37224849
  -exchange      EXHF   =         0.00000000
  -V(xc)+E(xc)   XCENC  =        54.90464629
  PAW double counting   =      1336.42703626    -1339.29923286
  entropy T*S    EENTRO =         0.00000000
  eigenvalues    EBANDS =      -208.95239227
  atomic energy  EATOM  =       596.16534815
  Solvation  Ediel_sol  =         0.00000000
  ---------------------------------------------------
  free energy    TOTEN  =       -35.60726830 eV

  energy without entropy =      -35.60726830  energy(sigma->0) =      -35.60726830


--------------------------------------------------------------------------------------------------------




----------------------------------------- Iteration   74(   5)  ---------------------------------------


    POTLOK:  cpu time   23.9164: real time   23.9719
    SETDIJ:  cpu time    0.0060: real time    0.0062
     EDDAV:  cpu time   42.3016: real time   42.4085
       DOS:  cpu time    0.0000: real time    0.0002
    CHARGE:  cpu time    5.2962: real time    5.3069
    MIXING:  cpu time    0.6959: real time    0.6975
    --------------------------------------------
      LOOP:  cpu time   72.2170: real time   72.3950

 eigenvalue-minimisations  :    64
 total energy-change (2. order) :-0.3336048E-06  (-0.7944840E-07)
 number of electron      15.9999998 magnetization 
 augmentation part        0.4509419 magnetization 

 Broyden mixing:
  rms(total) = 0.11269E-03    rms(broyden)= 0.11264E-03
  rms(prec ) = 0.11407E-03
  weight for this iteration     100.00

 eigenvalues of (default mixing * dielectric matrix)
  average eigenvalue GAMMA=   1.6583
  2.6982  1.9719  0.8601  1.1030

 Free energy of the ion-electron system (eV)
  ---------------------------------------------------
  alpha Z        PSCENC =         0.04144063
  Ewald energy   TEWEN  =       705.47813398
  -Hartree energ DENC   =     -1180.37311372
  -exchange      EXHF   =         0.00000000
  -V(xc)+E(xc)   XCENC  =        54.90469058
  PAW double counting   =      1336.54202267    -1339.41423022
  entropy T*S    EENTRO =         0.00000000
  eigenvalues    EBANDS =      -208.95156071
  atomic energy  EATOM  =       596.16534815
  Solvation  Ediel_sol  =         0.00000000
  ---------------------------------------------------
  free energy    TOTEN  =       -35.60726864 eV

  energy without entropy =      -35.60726864  energy(sigma->0) =      -35.60726864


--------------------------------------------------------------------------------------------------------




----------------------------------------- Iteration   74(   6)  ---------------------------------------


    POTLOK:  cpu time   18.4072: real time   18.4447
    SETDIJ:  cpu time    0.0060: real time    0.0064
     EDDAV:  cpu time   41.7856: real time   41.8679
       DOS:  cpu time    0.0000: real time    0.0002
    --------------------------------------------
      LOOP:  cpu time   60.2008: real time   60.3235

 eigenvalue-minimisations  :    64
 total energy-change (2. order) :-0.2057778E-06  (-0.1931017E-07)
 number of electron      15.9999998 magnetization 
 augmentation part        0.4509419 magnetization 

 Free energy of the ion-electron system (eV)
  ---------------------------------------------------
  alpha Z        PSCENC =         0.04144063
  Ewald energy   TEWEN  =       705.47813398
  -Hartree energ DENC   =     -1180.37248989
  -exchange      EXHF   =         0.00000000
  -V(xc)+E(xc)   XCENC  =        54.90464570
  PAW double counting   =      1336.59794423    -1339.47014274
  entropy T*S    EENTRO =         0.00000000
  eigenvalues    EBANDS =      -208.95214890
  atomic energy  EATOM  =       596.16534815
  Solvation  Ediel_sol  =         0.00000000
  ---------------------------------------------------
  free energy    TOTEN  =       -35.60726884 eV

  energy without entropy =      -35.60726884  energy(sigma->0) =      -35.60726884


--------------------------------------------------------------------------------------------------------




 average (electrostatic) potential at core
  the test charge radii are     0.5201  0.6991  0.7089
  (the norm of the test charge is              1.0000)
       1 -43.0691       2 -43.0704       3 -43.0639       4 -60.5111       5 -59.3528
       6 -74.8230
 
 
 
 E-fermi :  -6.1799     XC(G=0):  -0.0601     alpha+bet : -0.0137


 k-point     1 :       0.2500    0.2500    0.2500
  band No.  band energies     occupation 
      1     -23.9496      2.00000
      2     -19.2752      2.00000
      3     -13.8336      2.00000
      4     -11.8217      2.00000
      5     -11.8121      2.00000
      6      -8.3596      2.00000
      7      -8.2969      2.00000
      8      -7.1273      2.00000
      9      -0.9650      0.00000
     10      -0.6842      0.00000
     11      -0.5497      0.00000
     12       0.0245      0.00000

 k-point     2 :      -0.2500    0.2500    0.2500
  band No.  band energies     occupation 
      1     -23.9496      2.00000
      2     -19.2752      2.00000
      3     -13.8336      2.00000
      4     -11.8218      2.00000
      5     -11.8121      2.00000
      6      -8.3596      2.00000
      7      -8.2969      2.00000
      8      -7.1273      2.00000
      9      -0.9650      0.00000
     10      -0.6842      0.00000
     11      -0.5497      0.00000
     12       0.0258      0.00000

 k-point     3 :       0.2500   -0.2500    0.2500
  band No.  band energies     occupation 
      1     -23.9496      2.00000
      2     -19.2752      2.00000
      3     -13.8336      2.00000
      4     -11.8218      2.00000
      5     -11.8121      2.00000
      6      -8.3596      2.00000
      7      -8.2969      2.00000
      8      -7.1273      2.00000
      9      -0.9650      0.00000
     10      -0.6842      0.00000
     11      -0.5497      0.00000
     12       0.0254      0.00000

 k-point     4 :      -0.2500   -0.2500    0.2500
  band No.  band energies     occupation 
      1     -23.9496      2.00000
      2     -19.2752      2.00000
      3     -13.8336      2.00000
      4     -11.8218      2.00000
      5     -11.8121      2.00000
      6      -8.3596      2.00000
      7      -8.2969      2.00000
      8      -7.1273      2.00000
      9      -0.9650      0.00000
     10      -0.6842      0.00000
     11      -0.5497      0.00000
     12       0.0254      0.00000


--------------------------------------------------------------------------------------------------------


 soft charge-density along one line, spin component           1
         0         1         2         3         4         5         6         7         8         9
 total charge-density along one line
 
 pseudopotential strength for first ion, spin component:           1
 -2.362  -4.075  -0.002   0.000  -0.001
 -4.075  -6.942  -0.005   0.001  -0.002
 -0.002  -0.005  -0.330  -0.001   0.002
  0.000   0.001  -0.001  -0.334   0.000
 -0.001  -0.002   0.002   0.000  -0.333
 total augmentation occupancy for first ion, spin component:           1
  3.518  -0.633   0.406  -0.089   0.157
 -0.633   0.131  -0.075   0.016  -0.029
  0.406  -0.075   0.048  -0.009   0.016
 -0.089   0.016  -0.009   0.011  -0.003
  0.157  -0.029   0.016  -0.003   0.012


------------------------ aborting loop because EDIFF is reached ----------------------------------------


    CHARGE:  cpu time    4.9392: real time    4.9495
    FORLOC:  cpu time    2.3316: real time    2.3352
    FORNL :  cpu time   15.3117: real time   15.3422
    STRESS:  cpu time   47.0998: real time   47.2023
    FORCOR:  cpu time   18.0373: real time   18.0675
    FORHAR:  cpu time    6.3200: real time    6.3310
    MIXING:  cpu time    0.6229: real time    0.6244
    OFIELD:  cpu time    0.0000: real time    0.0000

  FORCE on cell =-STRESS in cart. coord.  units (eV):
  Direction    XX          YY          ZZ          XY          YZ          ZX
  --------------------------------------------------------------------------------------
  Alpha Z     0.04144     0.04144     0.04144
  Ewald     601.90741    49.93777    53.63274   -63.62072    11.56000   -75.76856
  Hartree   588.25929   295.28907   296.82331   -29.07444     4.57606   -34.94788
  E(xc)     -58.88900   -60.20883   -60.19716    -0.18745     0.03777    -0.22079
  Local   -1330.73846  -519.17938  -524.02958    87.54049   -14.84782   104.66767
  n-local   -26.46951   -24.55723   -24.60828     0.79986    -0.17243     0.91494
  augment     0.47723     0.98202     0.97793     0.06168    -0.01130     0.07043
  Kinetic   225.47128   256.68497   256.35564     4.36275    -1.12629     5.14337
  Fock        0.00000     0.00000     0.00000     0.00000     0.00000     0.00000
  -------------------------------------------------------------------------------------
  Total       0.05968    -1.01017    -1.00396    -0.11784     0.01600    -0.14082
  in kB       0.00354    -0.05994    -0.05957    -0.00699     0.00095    -0.00836
  external pressure =       -0.04 kB  Pullay stress =        0.00 kB


 VOLUME and BASIS-vectors are now :
 -----------------------------------------------------------------------------
  energy-cutoff  :      400.00
  volume of cell :    27000.00
      direct lattice vectors                 reciprocal lattice vectors
    30.000000000  0.000000000  0.000000000     0.033333333  0.000000000  0.000000000
     0.000000000 30.000000000  0.000000000     0.000000000  0.033333333  0.000000000
     0.000000000  0.000000000 30.000000000     0.000000000  0.000000000  0.033333333

  length of vectors
    30.000000000 30.000000000 30.000000000     0.033333333  0.033333333  0.033333333


 FORCES acting on ions
    electron-ion (+dipol)            ewald-force                    non-local-force                 convergence-correction
 -----------------------------------------------------------------------------------------------
   0.354E+02 0.555E+02 -.133E+02   -.374E+02 -.606E+02 0.145E+02   0.200E+01 0.519E+01 -.113E+01   0.622E-04 0.423E-04 -.409E-04
   0.359E+02 -.196E+02 0.533E+02   -.380E+02 0.213E+02 -.582E+02   0.205E+01 -.172E+01 0.500E+01   0.628E-04 -.450E-04 0.364E-04
   0.312E+02 -.394E+02 -.447E+02   -.331E+02 0.431E+02 0.488E+02   0.175E+01 -.361E+01 -.409E+01   0.683E-04 -.534E-04 -.610E-04
   0.122E+03 -.678E+01 -.859E+01   -.130E+03 0.699E+01 0.888E+01   0.760E+01 -.171E+00 -.253E+00   0.253E-03 -.596E-04 -.723E-04
   -.224E+03 0.384E+02 0.448E+02   0.250E+03 -.437E+02 -.509E+02   -.250E+02 0.540E+01 0.625E+01   -.273E-03 0.132E-03 0.147E-03
   0.865E+01 -.294E+02 -.330E+02   -.112E+02 0.330E+02 0.370E+02   0.231E+01 -.377E+01 -.424E+01   -.431E-03 0.376E-03 0.416E-03
 -----------------------------------------------------------------------------------------------
   0.932E+01 -.131E+01 -.155E+01   0.000E+00 0.000E+00 0.711E-14   -.933E+01 0.131E+01 0.155E+01   -.258E-03 0.391E-03 0.425E-03
 
 
 POSITION                                       TOTAL-FORCE (eV/Angst)
 -----------------------------------------------------------------------------------
     14.14184     14.04154     15.27754        -0.058626      0.035133      0.014795
     14.13217     15.38292     14.08726        -0.058998      0.011717      0.035793
     14.19760     15.74104     15.84127        -0.055096      0.042864      0.048422
     14.52552     15.04809     15.05768        -0.067342      0.033930      0.039301
     17.06620     14.78294     14.74020         0.444974      0.089662      0.097833
     15.93745     15.00292     14.99560        -0.204912     -0.213305     -0.236145
 -----------------------------------------------------------------------------------
    total drift:                               -0.002454     -0.000364      0.000852


--------------------------------------------------------------------------------------------------------



  FREE ENERGIE OF THE ION-ELECTRON SYSTEM (eV)
  ---------------------------------------------------
  free  energy   TOTEN  =       -35.60726884 eV

  energy  without entropy=      -35.60726884  energy(sigma->0) =      -35.60726884
 
 d Force =-0.1068198E-02[-0.110E-02,-0.103E-02]  d Energy =-0.1067282E-02-0.916E-06
 d Force =-0.1272399E+00[-0.127E+00,-0.128E+00]  d Ewald  =-0.1272402E+00 0.254E-06


--------------------------------------------------------------------------------------------------------


    POTLOK:  cpu time   16.9494: real time   16.9776


--------------------------------------------------------------------------------------------------------


 NEB: the previous image is higher in energy: F
 NEB: the next image is higher in energy    : T
 NEB: only next energy greater

 NEB: Tangent
 ----------------------------------------------
      0.12566     -0.06711     -0.04889
      0.12350     -0.04287     -0.07270
      0.06327     -0.05717     -0.06441
      0.06657     -0.05701     -0.06381
     -0.68826     -0.15080     -0.16486
      0.30916      0.37513      0.41454

 NEB: forces: par spring, perp REAL, dneb     0.065256    0.060529    0.000000
 NEB: distance to prev, next image, angle between     1.098586    1.111637   92.510692
 NEB: projections on to tangent (spring, REAL)     0.065256   -0.615986

 stress matrix after NEB project (eV)
      0.05968     -0.11784     -0.14082
     -0.11784     -1.01017      0.01600
     -0.14082      0.01600     -1.00396
  FORCES: max atom, RMS     0.062906    0.036337
  FORCE total and by dimension    0.089006    0.046255
  Stress total and by dimension    1.449096    1.010170
 OPT: skip step - force has converged


--------------------------------------------------------------------------------------------------------


  
 reached required accuracy - stopping structural energy minimisation
     LOOP+:  cpu time  579.4279: real time  580.8985
    4ORBIT:  cpu time    0.0000: real time    0.0000

 total amount of memory used by VASP on root node  3203886. kBytes
========================================================================

   base      :      30000. kBytes
   nonlr-proj:        690. kBytes
   fftplans  :     924480. kBytes
   grid      :    1872000. kBytes
   one-center:         18. kBytes
   wavefun   :     376698. kBytes
 
  
  
 General timing and accounting informations for this job:
 ========================================================
  
                  Total CPU time used (sec):    49532.586
                            User time (sec):    48889.683
                          System time (sec):      642.904
                         Elapsed time (sec):    49851.778
  
                   Maximum memory used (kb):     4764792.
                   Average memory used (kb):           0.
  
                          Minor page faults:      6127502
                          Major page faults:            8
                 Voluntary context switches:         9088
