 vasp.5.4.1 24Jun15 (build Jan 13 2020 12:58:22) complex                        
  
 POSCAR found type information on POSCAR  H  C  N 
 07/POSCAR found :  3 types and       6 ions
 scaLAPACK will be used

 ----------------------------------------------------------------------------- 
|                                                                             |
|  ADVICE TO THIS USER RUNNING 'VASP/VAMP'   (HEAR YOUR MASTER'S VOICE ...):  |
|                                                                             |
|      You have a (more or less) 'small supercell' and for smaller cells      |
|      it is recommended  to use the reciprocal-space projection scheme!      |
|      The real space optimization is not  efficient for small cells and it   |
|      is also less accurate ...                                              |
|      Therefore set LREAL=.FALSE. in the  INCAR file                         |
|                                                                             |
 ----------------------------------------------------------------------------- 

 LDA part: xc-table for Pade appr. of Perdew
 POSCAR found type information on POSCAR  H  C  N 
 00/POSCAR found :  3 types and       6 ions
 POSCAR found type information on POSCAR  H  C  N 
 16/POSCAR found :  3 types and       6 ions
 Jacobian:    40.4401846379183     
 POSCAR, INCAR and KPOINTS ok, starting setup
 WARNING: small aliasing (wrap around) errors must be expected
 FFT: planning ...
 WAVECAR not read
 entering main loop
       N       E                     dE             d eps       ncg     rms          rms(c)
DAV:   1     0.112418699934E+03    0.11242E+03   -0.21431E+03   160   0.366E+02
DAV:   2    -0.477510239594E+01   -0.11719E+03   -0.11475E+03   192   0.108E+02
DAV:   3    -0.352252062688E+02   -0.30450E+02   -0.30218E+02   128   0.875E+01
DAV:   4    -0.384859296839E+02   -0.32607E+01   -0.32227E+01   116   0.293E+01
DAV:   5    -0.385826875560E+02   -0.96758E-01   -0.95929E-01   112   0.510E+00    0.107E+01
DAV:   6    -0.358977925918E+02    0.26849E+01   -0.46056E+00   112   0.154E+01    0.574E+00
DAV:   7    -0.352340669890E+02    0.66373E+00   -0.15809E+00   116   0.913E+00    0.247E+00
DAV:   8    -0.351478293433E+02    0.86238E-01   -0.22590E-01   128   0.364E+00    0.990E-01
DAV:   9    -0.351294587991E+02    0.18371E-01   -0.34050E-02    96   0.152E+00    0.247E-01
DAV:  10    -0.351289859478E+02    0.47285E-03   -0.46361E-03   124   0.566E-01    0.130E-01
DAV:  11    -0.351306672286E+02   -0.16813E-02   -0.12314E-03    96   0.282E-01    0.762E-02
DAV:  12    -0.351351858209E+02   -0.45186E-02   -0.23145E-03   104   0.349E-01    0.427E-02
DAV:  13    -0.351400974522E+02   -0.49116E-02   -0.12983E-03   144   0.219E-01    0.275E-02
DAV:  14    -0.351442183054E+02   -0.41209E-02   -0.57930E-04   124   0.125E-01    0.174E-02
DAV:  15    -0.351458796489E+02   -0.16613E-02   -0.12632E-04   128   0.543E-02    0.111E-02
DAV:  16    -0.351484284858E+02   -0.25488E-02   -0.30882E-04   120   0.741E-02    0.547E-03
DAV:  17    -0.351488951687E+02   -0.46668E-03   -0.17611E-05    96   0.221E-02    0.368E-03
DAV:  18    -0.351494866725E+02   -0.59150E-03   -0.42871E-05    84   0.279E-02    0.171E-03
DAV:  19    -0.351496350484E+02   -0.14838E-03   -0.12054E-05    96   0.164E-02    0.128E-03
DAV:  20    -0.351497239880E+02   -0.88940E-04   -0.45700E-06    80   0.102E-02
   1 F= -.35149724E+02 E0= -.35149724E+02  d E =-.351497E+02
damped:  g(F)=  0.000E+00 g(S)=  0.000E+00 dE (1.order)= 0.000E+00
 bond charge predicted
       N       E                     dE             d eps       ncg     rms          rms(c)
DAV:   1    -0.351516798892E+02   -0.20448E-02   -0.93137E-03   124   0.922E-01    0.298E-02
DAV:   2    -0.351516792469E+02    0.64229E-06   -0.72213E-05    96   0.816E-02    0.168E-02
DAV:   3    -0.351516951858E+02   -0.15939E-04   -0.21535E-05    88   0.390E-02    0.438E-03
DAV:   4    -0.351517002863E+02   -0.51005E-05   -0.40779E-06    92   0.179E-02    0.261E-03
DAV:   5    -0.351517060225E+02   -0.57361E-05   -0.93410E-07    80   0.843E-03    0.849E-04
DAV:   6    -0.351517100082E+02   -0.39857E-05   -0.33658E-07    68   0.457E-03
   2 F= -.35151710E+02 E0= -.35151710E+02  d E =-.198602E-02
damped:  g(F)=  0.000E+00 g(S)=  0.000E+00 dE (1.order)= 0.000E+00
 bond charge predicted
       N       E                     dE             d eps       ncg     rms          rms(c)
DAV:   1    -0.351554448571E+02   -0.37388E-02   -0.33916E-02    96   0.176E+00    0.579E-02
DAV:   2    -0.351554168463E+02    0.28011E-04   -0.30241E-04   120   0.155E-01    0.326E-02
DAV:   3    -0.351554317001E+02   -0.14854E-04   -0.40596E-05    80   0.569E-02    0.891E-03
DAV:   4    -0.351554348770E+02   -0.31768E-05   -0.76331E-06    80   0.268E-02    0.456E-03
DAV:   5    -0.351554367360E+02   -0.18590E-05   -0.11155E-06    80   0.101E-02    0.184E-03
DAV:   6    -0.351554383017E+02   -0.15658E-05   -0.49063E-07    80   0.565E-03
   3 F= -.35155438E+02 E0= -.35155438E+02  d E =-.372829E-02
damped:  g(F)=  0.000E+00 g(S)=  0.000E+00 dE (1.order)= 0.000E+00
 bond charge predicted
       N       E                     dE             d eps       ncg     rms          rms(c)
DAV:   1    -0.351600918234E+02   -0.46551E-02   -0.63570E-02    96   0.242E+00    0.798E-02
DAV:   2    -0.351600360451E+02    0.55778E-04   -0.57507E-04    96   0.215E-01    0.450E-02
DAV:   3    -0.351600591685E+02   -0.23123E-04   -0.65856E-05    80   0.781E-02    0.123E-02
DAV:   4    -0.351600653132E+02   -0.61448E-05   -0.15335E-05    96   0.372E-02    0.593E-03
DAV:   5    -0.351600673343E+02   -0.20210E-05   -0.20912E-06    64   0.148E-02    0.233E-03
DAV:   6    -0.351600690135E+02   -0.16792E-05   -0.98276E-07    88   0.825E-03
   4 F= -.35160069E+02 E0= -.35160069E+02  d E =-.463071E-02
damped:  g(F)=  0.000E+00 g(S)=  0.000E+00 dE (1.order)= 0.000E+00
 bond charge predicted
       N       E                     dE             d eps       ncg     rms          rms(c)
DAV:   1    -0.351646462656E+02   -0.45789E-02   -0.81174E-02    96   0.274E+00    0.890E-02
DAV:   2    -0.351645856472E+02    0.60618E-04   -0.68144E-04   112   0.222E-01    0.511E-02
DAV:   3    -0.351646229251E+02   -0.37278E-04   -0.54836E-05    64   0.729E-02    0.118E-02
DAV:   4    -0.351646277598E+02   -0.48347E-05   -0.12310E-05    68   0.334E-02    0.539E-03
DAV:   5    -0.351646307382E+02   -0.29784E-05   -0.24410E-06    72   0.137E-02    0.226E-03
DAV:   6    -0.351646334821E+02   -0.27439E-05   -0.81298E-07    72   0.731E-03
   5 F= -.35164633E+02 E0= -.35164633E+02  d E =-.456447E-02
damped:  g(F)=  0.000E+00 g(S)=  0.000E+00 dE (1.order)= 0.000E+00
 bond charge predicted
       N       E                     dE             d eps       ncg     rms          rms(c)
DAV:   1    -0.351675836819E+02   -0.29529E-02   -0.84975E-02    96   0.279E+00    0.891E-02
DAV:   2    -0.351675332729E+02    0.50409E-04   -0.71857E-04   112   0.224E-01    0.519E-02
DAV:   3    -0.351675717151E+02   -0.38442E-04   -0.44502E-05    80   0.670E-02    0.112E-02
DAV:   4    -0.351675768103E+02   -0.50952E-05   -0.10530E-05    80   0.291E-02    0.478E-03
DAV:   5    -0.351675801655E+02   -0.33552E-05   -0.23630E-06    64   0.129E-02    0.189E-03
DAV:   6    -0.351675831445E+02   -0.29790E-05   -0.73650E-07    84   0.663E-03
   6 F= -.35167583E+02 E0= -.35167583E+02  d E =-.294966E-02
damped:  g(F)=  0.000E+00 g(S)=  0.000E+00 dE (1.order)= 0.000E+00
 bond charge predicted
       N       E                     dE             d eps       ncg     rms          rms(c)
DAV:   1    -0.351672080555E+02    0.37211E-03   -0.66202E-02    96   0.244E+00    0.773E-02
DAV:   2    -0.351671760810E+02    0.31974E-04   -0.57784E-04   112   0.202E-01    0.459E-02
DAV:   3    -0.351672029089E+02   -0.26828E-04   -0.52235E-05    80   0.648E-02    0.101E-02
DAV:   4    -0.351672074694E+02   -0.45605E-05   -0.89237E-06    80   0.265E-02    0.442E-03
DAV:   5    -0.351672106874E+02   -0.32180E-05   -0.17313E-06    64   0.116E-02    0.116E-03
DAV:   6    -0.351672129986E+02   -0.23112E-05   -0.57966E-07    80   0.572E-03
   7 F= -.35167213E+02 E0= -.35167213E+02  d E =0.370146E-03
damped:  g(F)=  0.000E+00 g(S)=  0.000E+00 dE (1.order)= 0.000E+00
 bond charge predicted
       N       E                     dE             d eps       ncg     rms          rms(c)
DAV:   1    -0.351668358684E+02    0.37482E-03   -0.26792E-04    96   0.160E-01    0.523E-03
DAV:   2    -0.351668367240E+02   -0.85568E-06   -0.32093E-06    56   0.171E-02    0.272E-03
DAV:   3    -0.351668378410E+02   -0.11169E-05   -0.58084E-07    56   0.731E-03    0.141E-03
DAV:   4    -0.351668391868E+02   -0.13459E-05   -0.28976E-07    80   0.479E-03    0.564E-04
DAV:   5    -0.351668400614E+02   -0.87454E-06   -0.74756E-08    56   0.231E-03    0.285E-04
DAV:   6    -0.351668407762E+02   -0.71484E-06   -0.39559E-08    76   0.124E-03
   8 F= -.35166841E+02 E0= -.35166841E+02  d E =0.372222E-03
damped:  g(F)=  0.000E+00 g(S)=  0.000E+00 dE (1.order)= 0.000E+00
 bond charge predicted
       N       E                     dE             d eps       ncg     rms          rms(c)
DAV:   1    -0.351661149791E+02    0.72508E-03   -0.89046E-04    96   0.291E-01    0.933E-03
DAV:   2    -0.351661140128E+02    0.96637E-06   -0.95592E-06    64   0.296E-02    0.484E-03
DAV:   3    -0.351661143822E+02   -0.36947E-06   -0.18307E-06    64   0.130E-02    0.234E-03
DAV:   4    -0.351661148575E+02   -0.47532E-06   -0.70006E-07    68   0.775E-03    0.954E-04
DAV:   5    -0.351661150753E+02   -0.21773E-06   -0.15265E-07    72   0.361E-03    0.432E-04
DAV:   6    -0.351661152423E+02   -0.16707E-06   -0.55918E-08    52   0.179E-03
   9 F= -.35166115E+02 E0= -.35166115E+02  d E =0.725534E-03
damped:  g(F)=  0.000E+00 g(S)=  0.000E+00 dE (1.order)= 0.000E+00
 bond charge predicted
       N       E                     dE             d eps       ncg     rms          rms(c)
DAV:   1    -0.351650944652E+02    0.10206E-02   -0.15253E-03    96   0.380E-01    0.119E-02
DAV:   2    -0.351650924964E+02    0.19688E-05   -0.13549E-05    64   0.349E-02    0.621E-03
DAV:   3    -0.351650928525E+02   -0.35618E-06   -0.26752E-06    84   0.153E-02    0.249E-03
DAV:   4    -0.351650931676E+02   -0.31505E-06   -0.83689E-07    64   0.819E-03    0.103E-03
DAV:   5    -0.351650932421E+02   -0.74553E-07   -0.20135E-07    48   0.382E-03    0.416E-04
DAV:   6    -0.351650933191E+02   -0.76927E-07   -0.86972E-08    64   0.200E-03
  10 F= -.35165093E+02 E0= -.35165093E+02  d E =0.102192E-02
damped:  g(F)=  0.000E+00 g(S)=  0.000E+00 dE (1.order)= 0.000E+00
 bond charge predicted
       N       E                     dE             d eps       ncg     rms          rms(c)
DAV:   1    -0.351638662054E+02    0.12270E-02   -0.20143E-03    96   0.436E-01    0.134E-02
DAV:   2    -0.351638640354E+02    0.21699E-05   -0.14984E-05    68   0.357E-02    0.717E-03
DAV:   3    -0.351638648818E+02   -0.84637E-06   -0.29213E-06    64   0.152E-02    0.197E-03
DAV:   4    -0.351638651546E+02   -0.27276E-06   -0.79177E-07    48   0.729E-03    0.871E-04
DAV:   5    -0.351638652639E+02   -0.10934E-06   -0.23696E-07    48   0.352E-03    0.369E-04
DAV:   6    -0.351638653752E+02   -0.11132E-06   -0.11180E-07    48   0.196E-03
  11 F= -.35163865E+02 E0= -.35163865E+02  d E =0.122794E-02
damped:  g(F)=  0.000E+00 g(S)=  0.000E+00 dE (1.order)= 0.000E+00
 bond charge predicted
       N       E                     dE             d eps       ncg     rms          rms(c)
DAV:   1    -0.351625600057E+02    0.13053E-02   -0.24014E-03    96   0.477E-01    0.148E-02
DAV:   2    -0.351625578076E+02    0.21981E-05   -0.17551E-05    64   0.378E-02    0.810E-03
DAV:   3    -0.351625590914E+02   -0.12838E-05   -0.33144E-06    64   0.157E-02    0.174E-03
DAV:   4    -0.351625593166E+02   -0.22521E-06   -0.87614E-07    48   0.725E-03    0.846E-04
DAV:   5    -0.351625594521E+02   -0.13554E-06   -0.29259E-07    48   0.374E-03    0.372E-04
DAV:   6    -0.351625595905E+02   -0.13838E-06   -0.12841E-07    48   0.199E-03
  12 F= -.35162560E+02 E0= -.35162560E+02  d E =0.130578E-02
damped:  g(F)=  0.000E+00 g(S)=  0.000E+00 dE (1.order)= 0.000E+00
 bond charge predicted
       N       E                     dE             d eps       ncg     rms          rms(c)
DAV:   1    -0.351613561190E+02    0.12033E-02   -0.26365E-03    96   0.500E-01    0.156E-02
DAV:   2    -0.351613537433E+02    0.23757E-05   -0.19256E-05    64   0.397E-02    0.861E-03
DAV:   3    -0.351613551592E+02   -0.14160E-05   -0.36330E-06    64   0.167E-02    0.182E-03
DAV:   4    -0.351613553835E+02   -0.22428E-06   -0.92296E-07    48   0.754E-03    0.907E-04
DAV:   5    -0.351613555576E+02   -0.17411E-06   -0.30863E-07    48   0.391E-03    0.337E-04
DAV:   6    -0.351613557080E+02   -0.15045E-06   -0.13275E-07    48   0.206E-03
  13 F= -.35161356E+02 E0= -.35161356E+02  d E =0.120388E-02
damped:  g(F)=  0.000E+00 g(S)=  0.000E+00 dE (1.order)= 0.000E+00
 bond charge predicted
       N       E                     dE             d eps       ncg     rms          rms(c)
DAV:   1    -0.351604418506E+02    0.91371E-03   -0.31567E-03    96   0.545E-01    0.170E-02
DAV:   2    -0.351604388555E+02    0.29951E-05   -0.22173E-05    64   0.438E-02    0.937E-03
DAV:   3    -0.351604403866E+02   -0.15311E-05   -0.43744E-06    64   0.191E-02    0.212E-03
DAV:   4    -0.351604407086E+02   -0.32202E-06   -0.10943E-06    48   0.880E-03    0.101E-03
DAV:   5    -0.351604408942E+02   -0.18554E-06   -0.31305E-07    48   0.420E-03    0.442E-04
DAV:   6    -0.351604410905E+02   -0.19632E-06   -0.14595E-07    48   0.243E-03
  14 F= -.35160441E+02 E0= -.35160441E+02  d E =0.914618E-03
damped:  g(F)=  0.000E+00 g(S)=  0.000E+00 dE (1.order)= 0.000E+00
 bond charge predicted
       N       E                     dE             d eps       ncg     rms          rms(c)
DAV:   1    -0.351602781574E+02    0.16274E-03   -0.34864E-03    96   0.572E-01    0.177E-02
DAV:   2    -0.351602752562E+02    0.29012E-05   -0.28071E-05    64   0.512E-02    0.101E-02
DAV:   3    -0.351602764760E+02   -0.12198E-05   -0.64830E-06    64   0.251E-02    0.305E-03
DAV:   4    -0.351602769359E+02   -0.45990E-06   -0.15041E-06    48   0.112E-02    0.151E-03
DAV:   5    -0.351602771655E+02   -0.22964E-06   -0.28935E-07    52   0.508E-03    0.500E-04
DAV:   6    -0.351602773750E+02   -0.20950E-06   -0.13741E-07    48   0.272E-03
  15 F= -.35160277E+02 E0= -.35160277E+02  d E =0.163715E-03
damped:  g(F)=  0.000E+00 g(S)=  0.000E+00 dE (1.order)= 0.000E+00
 bond charge predicted
       N       E                     dE             d eps       ncg     rms          rms(c)
DAV:   1    -0.351613995754E+02   -0.11224E-02   -0.43802E-03    96   0.649E-01    0.176E-02
DAV:   2    -0.351613984844E+02    0.10910E-05   -0.38695E-05    64   0.597E-02    0.105E-02
DAV:   3    -0.351613999680E+02   -0.14836E-05   -0.80747E-06    64   0.277E-02    0.332E-03
DAV:   4    -0.351614004452E+02   -0.47719E-06   -0.17737E-06    52   0.120E-02    0.150E-03
DAV:   5    -0.351614006621E+02   -0.21683E-06   -0.34524E-07    60   0.560E-03    0.548E-04
DAV:   6    -0.351614008675E+02   -0.20548E-06   -0.15983E-07    48   0.312E-03
  16 F= -.35161401E+02 E0= -.35161401E+02  d E =-.112349E-02
damped:  g(F)=  0.000E+00 g(S)=  0.000E+00 dE (1.order)= 0.000E+00
 bond charge predicted
       N       E                     dE             d eps       ncg     rms          rms(c)
DAV:   1    -0.351645666614E+02   -0.31660E-02   -0.10172E-02    96   0.100E+00    0.228E-02
DAV:   2    -0.351645666539E+02    0.75262E-08   -0.97589E-05    64   0.912E-02    0.132E-02
DAV:   3    -0.351645690982E+02   -0.24443E-05   -0.14155E-05    96   0.341E-02    0.602E-03
DAV:   4    -0.351645702599E+02   -0.11618E-05   -0.35535E-06    64   0.169E-02    0.145E-03
DAV:   5    -0.351645704134E+02   -0.15349E-06   -0.91786E-07    64   0.818E-03    0.893E-04
DAV:   6    -0.351645705806E+02   -0.16714E-06   -0.29316E-07    48   0.419E-03
  17 F= -.35164571E+02 E0= -.35164571E+02  d E =-.316971E-02
damped:  g(F)=  0.000E+00 g(S)=  0.000E+00 dE (1.order)= 0.000E+00
 bond charge predicted
       N       E                     dE             d eps       ncg     rms          rms(c)
DAV:   1    -0.351709900354E+02   -0.64196E-02   -0.32559E-02    96   0.179E+00    0.431E-02
DAV:   2    -0.351709852469E+02    0.47885E-05   -0.34225E-04    96   0.156E-01    0.238E-02
DAV:   3    -0.351709874666E+02   -0.22197E-05   -0.12754E-05    92   0.342E-02    0.115E-02
DAV:   4    -0.351709905183E+02   -0.30518E-05   -0.64816E-06    68   0.241E-02    0.228E-03
DAV:   5    -0.351709906749E+02   -0.15656E-06   -0.12996E-06    48   0.110E-02    0.154E-03
DAV:   6    -0.351709910687E+02   -0.39377E-06   -0.28274E-07    60   0.482E-03
  18 F= -.35170991E+02 E0= -.35170991E+02  d E =-.642049E-02
damped:  g(F)=  0.000E+00 g(S)=  0.000E+00 dE (1.order)= 0.000E+00
 bond charge predicted
       N       E                     dE             d eps       ncg     rms          rms(c)
DAV:   1    -0.351824553308E+02   -0.11465E-01   -0.98264E-02    96   0.310E+00    0.775E-02
DAV:   2    -0.351824315347E+02    0.23796E-04   -0.99308E-04   112   0.258E-01    0.431E-02
DAV:   3    -0.351824418357E+02   -0.10301E-04   -0.38085E-05    80   0.582E-02    0.175E-02
DAV:   4    -0.351824502376E+02   -0.84019E-05   -0.15526E-05    84   0.363E-02    0.422E-03
DAV:   5    -0.351824512736E+02   -0.10360E-05   -0.31998E-06    48   0.168E-02    0.254E-03
DAV:   6    -0.351824529035E+02   -0.16298E-05   -0.75810E-07    64   0.733E-03
  19 F= -.35182453E+02 E0= -.35182453E+02  d E =-.114618E-01
damped:  g(F)=  0.000E+00 g(S)=  0.000E+00 dE (1.order)= 0.000E+00
 bond charge predicted
       N       E                     dE             d eps       ncg     rms          rms(c)
DAV:   1    -0.352013559286E+02   -0.18905E-01   -0.27582E-01    96   0.518E+00    0.133E-01
DAV:   2    -0.352012655052E+02    0.90423E-04   -0.27003E-03    96   0.422E-01    0.740E-02
DAV:   3    -0.352013097186E+02   -0.44213E-04   -0.10463E-04    96   0.963E-02    0.267E-02
DAV:   4    -0.352013359566E+02   -0.26238E-04   -0.37973E-05    68   0.559E-02    0.726E-03
DAV:   5    -0.352013397659E+02   -0.38092E-05   -0.81148E-06    52   0.262E-02    0.406E-03
DAV:   6    -0.352013441551E+02   -0.43892E-05   -0.20731E-06    64   0.114E-02
  20 F= -.35201344E+02 E0= -.35201344E+02  d E =-.188913E-01
damped:  g(F)=  0.000E+00 g(S)=  0.000E+00 dE (1.order)= 0.000E+00
 bond charge predicted
       N       E                     dE             d eps       ncg     rms          rms(c)
DAV:   1    -0.352305572641E+02   -0.29217E-01   -0.72730E-01    96   0.838E+00    0.218E-01
DAV:   2    -0.352302885923E+02    0.26867E-03   -0.68747E-03   100   0.678E-01    0.119E-01
DAV:   3    -0.352303763856E+02   -0.87793E-04   -0.33011E-04   128   0.159E-01    0.434E-02
DAV:   4    -0.352304496241E+02   -0.73239E-04   -0.57766E-05    68   0.728E-02    0.123E-02
DAV:   5    -0.352304614550E+02   -0.11831E-04   -0.96284E-06    68   0.308E-02    0.512E-03
DAV:   6    -0.352304717168E+02   -0.10262E-04   -0.26460E-06    76   0.127E-02
  21 F= -.35230472E+02 E0= -.35230472E+02  d E =-.291276E-01
damped:  g(F)=  0.000E+00 g(S)=  0.000E+00 dE (1.order)= 0.000E+00
 bond charge predicted
       N       E                     dE             d eps       ncg     rms          rms(c)
DAV:   1    -0.352725635641E+02   -0.42102E-01   -0.17336E+00    96   0.129E+01    0.336E-01
DAV:   2    -0.352720090908E+02    0.55447E-03   -0.16178E-02   108   0.104E+00    0.182E-01
DAV:   3    -0.352721398048E+02   -0.13071E-03   -0.78376E-04   128   0.249E-01    0.670E-02
DAV:   4    -0.352723001111E+02   -0.16031E-03   -0.14434E-04    80   0.115E-01    0.188E-02
DAV:   5    -0.352723313213E+02   -0.31210E-04   -0.23584E-05    76   0.474E-02    0.757E-03
DAV:   6    -0.352723537077E+02   -0.22386E-04   -0.66480E-06    80   0.199E-02
  22 F= -.35272354E+02 E0= -.35272354E+02  d E =-.418820E-01
damped:  g(F)=  0.000E+00 g(S)=  0.000E+00 dE (1.order)= 0.000E+00
 bond charge predicted
       N       E                     dE             d eps       ncg     rms          rms(c)
DAV:   1    -0.353275801806E+02   -0.55249E-01   -0.36454E+00    96   0.186E+01    0.480E-01
DAV:   2    -0.353269977828E+02    0.58240E-03   -0.34695E-02   112   0.152E+00    0.263E-01
DAV:   3    -0.353271296189E+02   -0.13184E-03   -0.15653E-03   128   0.350E-01    0.964E-02
DAV:   4    -0.353274508780E+02   -0.32126E-03   -0.33505E-04   112   0.160E-01    0.292E-02
DAV:   5    -0.353275081092E+02   -0.57231E-04   -0.30873E-05    76   0.572E-02    0.124E-02
DAV:   6    -0.353275489844E+02   -0.40875E-04   -0.11518E-05    80   0.297E-02
  23 F= -.35327549E+02 E0= -.35327549E+02  d E =-.551953E-01
damped:  g(F)=  0.000E+00 g(S)=  0.000E+00 dE (1.order)= 0.000E+00
 bond charge predicted
       N       E                     dE             d eps       ncg     rms          rms(c)
DAV:   1    -0.353931249287E+02   -0.65617E-01   -0.70498E+00    96   0.258E+01    0.651E-01
DAV:   2    -0.353931787963E+02   -0.53868E-04   -0.70382E-02   112   0.218E+00    0.358E-01
DAV:   3    -0.353929708755E+02    0.20792E-03   -0.31235E-03   128   0.510E-01    0.139E-01
DAV:   4    -0.353935532448E+02   -0.58237E-03   -0.76355E-04   128   0.245E-01    0.400E-02
DAV:   5    -0.353936605533E+02   -0.10731E-03   -0.71896E-05    88   0.868E-02    0.170E-02
DAV:   6    -0.353937345959E+02   -0.74043E-04   -0.32345E-05    80   0.495E-02
  24 F= -.35393735E+02 E0= -.35393735E+02  d E =-.661856E-01
damped:  g(F)=  0.000E+00 g(S)=  0.000E+00 dE (1.order)= 0.000E+00
 bond charge predicted
       N       E                     dE             d eps       ncg     rms          rms(c)
DAV:   1    -0.354603752450E+02   -0.66715E-01   -0.10825E+01    96   0.318E+01    0.778E-01
DAV:   2    -0.354631837270E+02   -0.28085E-02   -0.11585E-01   112   0.270E+00    0.451E-01
DAV:   3    -0.354630743132E+02    0.10941E-03   -0.43501E-03   128   0.565E-01    0.173E-01
DAV:   4    -0.354637328755E+02   -0.65856E-03   -0.98710E-04   128   0.273E-01    0.529E-02
DAV:   5    -0.354638654395E+02   -0.13256E-03   -0.89735E-05    96   0.982E-02    0.231E-02
DAV:   6    -0.354639826986E+02   -0.11726E-03   -0.38545E-05    80   0.515E-02    0.821E-03
DAV:   7    -0.354640517866E+02   -0.69088E-04   -0.11241E-05    88   0.253E-02
  25 F= -.35464052E+02 E0= -.35464052E+02  d E =-.703172E-01
damped:  g(F)=  0.000E+00 g(S)=  0.000E+00 dE (1.order)= 0.000E+00
 bond charge predicted
       N       E                     dE             d eps       ncg     rms          rms(c)
DAV:   1    -0.355071902001E+02   -0.43208E-01   -0.14216E+01    96   0.363E+01    0.921E-01
DAV:   2    -0.355095252819E+02   -0.23351E-02   -0.18530E-01   128   0.367E+00    0.547E-01
DAV:   3    -0.355068257104E+02    0.26996E-02   -0.10979E-02   128   0.104E+00    0.243E-01
DAV:   4    -0.355075337697E+02   -0.70806E-03   -0.46982E-03   128   0.632E-01    0.869E-02
DAV:   5    -0.355075794403E+02   -0.45671E-04   -0.65792E-04   112   0.243E-01    0.373E-02
DAV:   6    -0.355077233333E+02   -0.14389E-03   -0.14351E-04    96   0.110E-01    0.144E-02
DAV:   7    -0.355078073624E+02   -0.84029E-04   -0.22673E-05    84   0.496E-02
  26 F= -.35507807E+02 E0= -.35507807E+02  d E =-.437556E-01
damped:  g(F)=  0.000E+00 g(S)=  0.000E+00 dE (1.order)= 0.000E+00
 bond charge predicted
       N       E                     dE             d eps       ncg     rms          rms(c)
DAV:   1    -0.355260460138E+02   -0.18323E-01   -0.16742E+00    96   0.126E+01    0.518E-01
DAV:   2    -0.355233872901E+02    0.26587E-02   -0.39908E-02   128   0.176E+00    0.250E-01
DAV:   3    -0.355223887401E+02    0.99855E-03   -0.47519E-03   128   0.663E-01    0.131E-01
DAV:   4    -0.355224004366E+02   -0.11697E-04   -0.18569E-03   112   0.420E-01    0.450E-02
DAV:   5    -0.355224125885E+02   -0.12152E-04   -0.21445E-04   128   0.140E-01    0.243E-02
DAV:   6    -0.355224295250E+02   -0.16937E-04   -0.26620E-05    96   0.487E-02
  27 F= -.35522430E+02 E0= -.35522430E+02  d E =-.146222E-01
damped:  g(F)=  0.000E+00 g(S)=  0.000E+00 dE (1.order)= 0.000E+00
 bond charge predicted
       N       E                     dE             d eps       ncg     rms          rms(c)
DAV:   1    -0.355227777868E+02   -0.36520E-03   -0.12254E-02   112   0.106E+00    0.536E-02
DAV:   2    -0.355227721950E+02    0.55918E-05   -0.34230E-04   128   0.165E-01    0.270E-02
DAV:   3    -0.355227690341E+02    0.31609E-05   -0.40083E-05    96   0.670E-02    0.135E-02
DAV:   4    -0.355227827344E+02   -0.13700E-04   -0.32440E-05    80   0.560E-02    0.458E-03
DAV:   5    -0.355227884167E+02   -0.56823E-05   -0.56930E-06    96   0.243E-02    0.237E-03
DAV:   6    -0.355227939028E+02   -0.54861E-05   -0.12616E-06    64   0.110E-02
  28 F= -.35522794E+02 E0= -.35522794E+02  d E =-.364378E-03
damped:  g(F)=  0.000E+00 g(S)=  0.000E+00 dE (1.order)= 0.000E+00
 bond charge predicted
       N       E                     dE             d eps       ncg     rms          rms(c)
DAV:   1    -0.355218573629E+02    0.93105E-03   -0.35390E-02    96   0.180E+00    0.898E-02
DAV:   2    -0.355218090361E+02    0.48327E-04   -0.94180E-04   112   0.270E-01    0.448E-02
DAV:   3    -0.355217787603E+02    0.30276E-04   -0.11489E-04    96   0.113E-01    0.219E-02
DAV:   4    -0.355217845430E+02   -0.57827E-05   -0.78980E-05    96   0.888E-02    0.743E-03
DAV:   5    -0.355217858897E+02   -0.13467E-05   -0.14074E-05    96   0.375E-02    0.386E-03
DAV:   6    -0.355217869028E+02   -0.10131E-05   -0.29607E-06    64   0.168E-02
  29 F= -.35521787E+02 E0= -.35521787E+02  d E =0.100700E-02
damped:  g(F)=  0.000E+00 g(S)=  0.000E+00 dE (1.order)= 0.000E+00
 bond charge predicted
       N       E                     dE             d eps       ncg     rms          rms(c)
DAV:   1    -0.355185517912E+02    0.32341E-02   -0.47338E-02    96   0.210E+00    0.858E-02
DAV:   2    -0.355185263483E+02    0.25443E-04   -0.10639E-03   112   0.276E-01    0.481E-02
DAV:   3    -0.355184935800E+02    0.32768E-04   -0.12291E-04    96   0.117E-01    0.229E-02
DAV:   4    -0.355184980160E+02   -0.44359E-05   -0.68195E-05    64   0.835E-02    0.749E-03
DAV:   5    -0.355184986869E+02   -0.67094E-06   -0.13154E-05    96   0.352E-02    0.380E-03
DAV:   6    -0.355184996451E+02   -0.95817E-06   -0.30593E-06    64   0.172E-02
  30 F= -.35518500E+02 E0= -.35518500E+02  d E =0.328726E-02
damped:  g(F)=  0.000E+00 g(S)=  0.000E+00 dE (1.order)= 0.000E+00
 bond charge predicted
       N       E                     dE             d eps       ncg     rms          rms(c)
DAV:   1    -0.355143870459E+02    0.41116E-02   -0.60023E-02    96   0.238E+00    0.559E-02
DAV:   2    -0.355144180216E+02   -0.30976E-04   -0.82865E-04   128   0.235E-01    0.390E-02
DAV:   3    -0.355144124351E+02    0.55865E-05   -0.66767E-05    96   0.823E-02    0.174E-02
DAV:   4    -0.355144178704E+02   -0.54353E-05   -0.16973E-05    64   0.418E-02    0.644E-03
DAV:   5    -0.355144198420E+02   -0.19716E-05   -0.40335E-06    64   0.183E-02    0.321E-03
DAV:   6    -0.355144216456E+02   -0.18036E-05   -0.12091E-06    64   0.115E-02
  31 F= -.35514422E+02 E0= -.35514422E+02  d E =0.407800E-02
damped:  g(F)=  0.000E+00 g(S)=  0.000E+00 dE (1.order)= 0.000E+00
 bond charge predicted
       N       E                     dE             d eps       ncg     rms          rms(c)
DAV:   1    -0.355111454862E+02    0.32744E-02   -0.10688E-01    96   0.318E+00    0.702E-02
DAV:   2    -0.355111700221E+02   -0.24536E-04   -0.11445E-03    96   0.285E-01    0.362E-02
DAV:   3    -0.355111717659E+02   -0.17438E-05   -0.35158E-05    96   0.604E-02    0.198E-02
DAV:   4    -0.355111795596E+02   -0.77937E-05   -0.21547E-05    64   0.446E-02    0.487E-03
DAV:   5    -0.355111806143E+02   -0.10548E-05   -0.48607E-06    96   0.214E-02    0.308E-03
DAV:   6    -0.355111817218E+02   -0.11074E-05   -0.12317E-06    64   0.117E-02
  32 F= -.35511182E+02 E0= -.35511182E+02  d E =0.323992E-02
damped:  g(F)=  0.000E+00 g(S)=  0.000E+00 dE (1.order)= 0.000E+00
 bond charge predicted
       N       E                     dE             d eps       ncg     rms          rms(c)
DAV:   1    -0.355081566941E+02    0.30239E-02   -0.18387E-01    96   0.419E+00    0.111E-01
DAV:   2    -0.355080990683E+02    0.57626E-04   -0.22318E-03   128   0.419E-01    0.498E-02
DAV:   3    -0.355080776933E+02    0.21375E-04   -0.11388E-04    96   0.112E-01    0.266E-02
DAV:   4    -0.355080861463E+02   -0.84531E-05   -0.11528E-04    64   0.104E-01    0.830E-03
DAV:   5    -0.355080873689E+02   -0.12226E-05   -0.21801E-05    96   0.470E-02    0.638E-03
DAV:   6    -0.355080890600E+02   -0.16910E-05   -0.67366E-06    80   0.285E-02
  33 F= -.35508089E+02 E0= -.35508089E+02  d E =0.309266E-02
damped:  g(F)=  0.000E+00 g(S)=  0.000E+00 dE (1.order)= 0.000E+00
 bond charge predicted
       N       E                     dE             d eps       ncg     rms          rms(c)
DAV:   1    -0.355024821609E+02    0.56052E-02   -0.30065E-01    96   0.536E+00    0.148E-01
DAV:   2    -0.355023315587E+02    0.15060E-03   -0.39849E-03   128   0.563E-01    0.673E-02
DAV:   3    -0.355022845557E+02    0.47003E-04   -0.27997E-04   128   0.162E-01    0.346E-02
DAV:   4    -0.355022910264E+02   -0.64707E-05   -0.12821E-04    96   0.116E-01    0.102E-02
DAV:   5    -0.355022947158E+02   -0.36894E-05   -0.19721E-05    64   0.458E-02    0.585E-03
DAV:   6    -0.355023010171E+02   -0.63013E-05   -0.55593E-06    96   0.227E-02
  34 F= -.35502301E+02 E0= -.35502301E+02  d E =0.578804E-02
damped:  g(F)=  0.000E+00 g(S)=  0.000E+00 dE (1.order)= 0.000E+00
 bond charge predicted
       N       E                     dE             d eps       ncg     rms          rms(c)
DAV:   1    -0.354937569158E+02    0.85378E-02   -0.26931E-01    96   0.506E+00    0.122E-01
DAV:   2    -0.354937549222E+02    0.19936E-05   -0.30005E-03   128   0.472E-01    0.566E-02
DAV:   3    -0.354937432057E+02    0.11717E-04   -0.11433E-04    96   0.113E-01    0.313E-02
DAV:   4    -0.354937634562E+02   -0.20251E-04   -0.11334E-04    64   0.103E-01    0.824E-03
DAV:   5    -0.354937677616E+02   -0.43053E-05   -0.22572E-05    48   0.475E-02    0.625E-03
DAV:   6    -0.354937741291E+02   -0.63675E-05   -0.54230E-06    80   0.255E-02
  35 F= -.35493774E+02 E0= -.35493774E+02  d E =0.852689E-02
damped:  g(F)=  0.000E+00 g(S)=  0.000E+00 dE (1.order)= 0.000E+00
 bond charge predicted
       N       E                     dE             d eps       ncg     rms          rms(c)
DAV:   1    -0.354940157419E+02   -0.24798E-03   -0.57137E-04   128   0.234E-01    0.112E-02
DAV:   2    -0.354940197574E+02   -0.40155E-05   -0.12672E-05    64   0.342E-02    0.498E-03
DAV:   3    -0.354940236474E+02   -0.38899E-05   -0.23535E-06    80   0.153E-02    0.267E-03
DAV:   4    -0.354940296548E+02   -0.60075E-05   -0.15390E-06    96   0.114E-02    0.935E-04
DAV:   5    -0.354940322408E+02   -0.25860E-05   -0.29350E-07    48   0.538E-03    0.517E-04
DAV:   6    -0.354940354866E+02   -0.32458E-05   -0.16287E-07    92   0.306E-03
  36 F= -.35494035E+02 E0= -.35494035E+02  d E =-.261357E-03
damped:  g(F)=  0.000E+00 g(S)=  0.000E+00 dE (1.order)= 0.000E+00
 bond charge predicted
       N       E                     dE             d eps       ncg     rms          rms(c)
DAV:   1    -0.354945544064E+02   -0.52217E-03   -0.20520E-03    96   0.444E-01    0.177E-02
DAV:   2    -0.354945525165E+02    0.18899E-05   -0.42679E-05    96   0.618E-02    0.844E-03
DAV:   3    -0.354945533131E+02   -0.79656E-06   -0.85568E-06    64   0.289E-02    0.464E-03
DAV:   4    -0.354945553896E+02   -0.20765E-05   -0.47921E-06    96   0.209E-02    0.177E-03
DAV:   5    -0.354945563205E+02   -0.93090E-06   -0.88365E-07    64   0.963E-03    0.102E-03
DAV:   6    -0.354945571141E+02   -0.79362E-06   -0.20551E-07    88   0.432E-03
  37 F= -.35494557E+02 E0= -.35494557E+02  d E =-.521628E-03
damped:  g(F)=  0.000E+00 g(S)=  0.000E+00 dE (1.order)= 0.000E+00
 bond charge predicted
       N       E                     dE             d eps       ncg     rms          rms(c)
DAV:   1    -0.354954125895E+02   -0.85627E-03   -0.39452E-03    96   0.617E-01    0.210E-02
DAV:   2    -0.354954069597E+02    0.56298E-05   -0.69501E-05    64   0.774E-02    0.101E-02
DAV:   3    -0.354954064534E+02    0.50630E-06   -0.12321E-05    96   0.339E-02    0.592E-03
DAV:   4    -0.354954070019E+02   -0.54857E-06   -0.62750E-06    64   0.240E-02    0.223E-03
DAV:   5    -0.354954072145E+02   -0.21254E-06   -0.12097E-06    96   0.110E-02    0.133E-03
DAV:   6    -0.354954073873E+02   -0.17287E-06   -0.26023E-07    64   0.495E-03
  38 F= -.35495407E+02 E0= -.35495407E+02  d E =-.850273E-03
damped:  g(F)=  0.000E+00 g(S)=  0.000E+00 dE (1.order)= 0.000E+00
 bond charge predicted
       N       E                     dE             d eps       ncg     rms          rms(c)
DAV:   1    -0.354966891081E+02   -0.12819E-02   -0.62597E-03    96   0.777E-01    0.223E-02
DAV:   2    -0.354966824022E+02    0.67059E-05   -0.77117E-05    68   0.829E-02    0.104E-02
DAV:   3    -0.354966821704E+02    0.23182E-06   -0.12726E-05    88   0.337E-02    0.551E-03
DAV:   4    -0.354966825632E+02   -0.39282E-06   -0.58161E-06    68   0.231E-02    0.186E-03
DAV:   5    -0.354966825708E+02   -0.75398E-08   -0.12044E-06    48   0.107E-02    0.115E-03
DAV:   6    -0.354966826624E+02   -0.91580E-07   -0.29791E-07    76   0.533E-03
  39 F= -.35496683E+02 E0= -.35496683E+02  d E =-.127528E-02
damped:  g(F)=  0.000E+00 g(S)=  0.000E+00 dE (1.order)= 0.000E+00
 bond charge predicted
       N       E                     dE             d eps       ncg     rms          rms(c)
DAV:   1    -0.354983837092E+02   -0.17011E-02   -0.88983E-03    96   0.923E-01    0.230E-02
DAV:   2    -0.354983778786E+02    0.58306E-05   -0.81813E-05    64   0.842E-02    0.110E-02
DAV:   3    -0.354983787299E+02   -0.85130E-06   -0.12667E-05    48   0.325E-02    0.527E-03
DAV:   4    -0.354983796508E+02   -0.92087E-06   -0.43378E-06    80   0.195E-02    0.153E-03
DAV:   5    -0.354983798068E+02   -0.15603E-06   -0.10224E-06    48   0.923E-03    0.946E-04
DAV:   6    -0.354983800966E+02   -0.28979E-06   -0.28908E-07    48   0.484E-03
  40 F= -.35498380E+02 E0= -.35498380E+02  d E =-.169743E-02
damped:  g(F)=  0.000E+00 g(S)=  0.000E+00 dE (1.order)= 0.000E+00
 bond charge predicted
       N       E                     dE             d eps       ncg     rms          rms(c)
DAV:   1    -0.355004916255E+02   -0.21118E-02   -0.11949E-02    96   0.107E+00    0.240E-02
DAV:   2    -0.355004875162E+02    0.41093E-05   -0.94867E-05    64   0.874E-02    0.127E-02
DAV:   3    -0.355004897694E+02   -0.22532E-05   -0.14351E-05    52   0.332E-02    0.519E-03
DAV:   4    -0.355004909865E+02   -0.12171E-05   -0.36356E-06    48   0.168E-02    0.167E-03
DAV:   5    -0.355004912793E+02   -0.29285E-06   -0.10103E-06    48   0.839E-03    0.105E-03
DAV:   6    -0.355004917865E+02   -0.50714E-06   -0.32843E-07    48   0.436E-03
  41 F= -.35500492E+02 E0= -.35500492E+02  d E =-.211169E-02
damped:  g(F)=  0.000E+00 g(S)=  0.000E+00 dE (1.order)= 0.000E+00
 bond charge predicted
       N       E                     dE             d eps       ncg     rms          rms(c)
DAV:   1    -0.355032665039E+02   -0.27752E-02   -0.19373E-02    96   0.135E+00    0.295E-02
DAV:   2    -0.355032660015E+02    0.50239E-06   -0.17577E-04   124   0.109E-01    0.180E-02
DAV:   3    -0.355032681547E+02   -0.21532E-05   -0.75957E-06    64   0.260E-02    0.631E-03
DAV:   4    -0.355032694389E+02   -0.12842E-05   -0.20880E-06    48   0.133E-02    0.238E-03
DAV:   5    -0.355032698120E+02   -0.37306E-06   -0.47269E-07    48   0.608E-03    0.124E-03
DAV:   6    -0.355032703984E+02   -0.58642E-06   -0.15624E-07    48   0.312E-03
  42 F= -.35503270E+02 E0= -.35503270E+02  d E =-.277861E-02
damped:  g(F)=  0.000E+00 g(S)=  0.000E+00 dE (1.order)= 0.000E+00
 bond charge predicted
       N       E                     dE             d eps       ncg     rms          rms(c)
DAV:   1    -0.355067602547E+02   -0.34904E-02   -0.31325E-02    96   0.172E+00    0.376E-02
DAV:   2    -0.355067627147E+02   -0.24601E-05   -0.30092E-04   116   0.141E-01    0.241E-02
DAV:   3    -0.355067658982E+02   -0.31835E-05   -0.16749E-05    76   0.393E-02    0.819E-03
DAV:   4    -0.355067674961E+02   -0.15979E-05   -0.39112E-06    48   0.195E-02    0.358E-03
DAV:   5    -0.355067681605E+02   -0.66441E-06   -0.90792E-07    48   0.842E-03    0.177E-03
DAV:   6    -0.355067688529E+02   -0.69238E-06   -0.25237E-07    48   0.455E-03
  43 F= -.35506769E+02 E0= -.35506769E+02  d E =-.349845E-02
damped:  g(F)=  0.000E+00 g(S)=  0.000E+00 dE (1.order)= 0.000E+00
 bond charge predicted
       N       E                     dE             d eps       ncg     rms          rms(c)
DAV:   1    -0.355109920086E+02   -0.42238E-02   -0.50053E-02    96   0.217E+00    0.472E-02
DAV:   2    -0.355109979396E+02   -0.59310E-05   -0.49393E-04   112   0.179E-01    0.306E-02
DAV:   3    -0.355110026466E+02   -0.47070E-05   -0.26089E-05    80   0.494E-02    0.106E-02
DAV:   4    -0.355110053335E+02   -0.26869E-05   -0.61247E-06    48   0.244E-02    0.448E-03
DAV:   5    -0.355110063457E+02   -0.10121E-05   -0.14504E-06    48   0.107E-02    0.222E-03
DAV:   6    -0.355110073264E+02   -0.98068E-06   -0.39512E-07    48   0.572E-03
  44 F= -.35511007E+02 E0= -.35511007E+02  d E =-.423847E-02
damped:  g(F)=  0.000E+00 g(S)=  0.000E+00 dE (1.order)= 0.000E+00
 bond charge predicted
       N       E                     dE             d eps       ncg     rms          rms(c)
DAV:   1    -0.355160032950E+02   -0.49969E-02   -0.78499E-02    96   0.271E+00    0.578E-02
DAV:   2    -0.355160122547E+02   -0.89597E-05   -0.76016E-04   116   0.220E-01    0.365E-02
DAV:   3    -0.355160201873E+02   -0.79326E-05   -0.30064E-05    76   0.524E-02    0.129E-02
DAV:   4    -0.355160252012E+02   -0.50140E-05   -0.82113E-06    52   0.266E-02    0.474E-03
DAV:   5    -0.355160264053E+02   -0.12041E-05   -0.19471E-06    48   0.123E-02    0.250E-03
DAV:   6    -0.355160278245E+02   -0.14191E-05   -0.56507E-07    48   0.623E-03
  45 F= -.35516028E+02 E0= -.35516028E+02  d E =-.502050E-02
damped:  g(F)=  0.000E+00 g(S)=  0.000E+00 dE (1.order)= 0.000E+00
 bond charge predicted
       N       E                     dE             d eps       ncg     rms          rms(c)
DAV:   1    -0.355218656224E+02   -0.58392E-02   -0.12063E-01    96   0.335E+00    0.710E-02
DAV:   2    -0.355218739659E+02   -0.83436E-05   -0.11569E-03   128   0.271E-01    0.427E-02
DAV:   3    -0.355218829517E+02   -0.89858E-05   -0.36313E-05    64   0.589E-02    0.162E-02
DAV:   4    -0.355218927394E+02   -0.97877E-05   -0.14854E-05    80   0.347E-02    0.441E-03
DAV:   5    -0.355218940949E+02   -0.13555E-05   -0.32582E-06    48   0.163E-02    0.269E-03
DAV:   6    -0.355218959710E+02   -0.18761E-05   -0.92680E-07    64   0.819E-03
  46 F= -.35521896E+02 E0= -.35521896E+02  d E =-.586815E-02
damped:  g(F)=  0.000E+00 g(S)=  0.000E+00 dE (1.order)= 0.000E+00
 bond charge predicted
       N       E                     dE             d eps       ncg     rms          rms(c)
DAV:   1    -0.355285010479E+02   -0.66070E-02   -0.17860E-01    96   0.407E+00    0.875E-02
DAV:   2    -0.355285039644E+02   -0.29164E-05   -0.17881E-03   128   0.341E-01    0.512E-02
DAV:   3    -0.355285063397E+02   -0.23754E-05   -0.63373E-05    96   0.826E-02    0.213E-02
DAV:   4    -0.355285240957E+02   -0.17756E-04   -0.38692E-05    76   0.577E-02    0.559E-03
DAV:   5    -0.355285258149E+02   -0.17192E-05   -0.74669E-06    48   0.259E-02    0.344E-03
DAV:   6    -0.355285284410E+02   -0.26261E-05   -0.27031E-06    68   0.153E-02
  47 F= -.35528528E+02 E0= -.35528528E+02  d E =-.663247E-02
damped:  g(F)=  0.000E+00 g(S)=  0.000E+00 dE (1.order)= 0.000E+00
 bond charge predicted
       N       E                     dE             d eps       ncg     rms          rms(c)
DAV:   1    -0.355355031233E+02   -0.69773E-02   -0.23894E-01    96   0.470E+00    0.101E-01
DAV:   2    -0.355355097821E+02   -0.66588E-05   -0.25059E-03   128   0.405E-01    0.607E-02
DAV:   3    -0.355355031433E+02    0.66388E-05   -0.10121E-04    96   0.106E-01    0.257E-02
DAV:   4    -0.355355283350E+02   -0.25192E-04   -0.66991E-05    80   0.767E-02    0.733E-03
DAV:   5    -0.355355310272E+02   -0.26922E-05   -0.12482E-05    48   0.342E-02    0.419E-03
DAV:   6    -0.355355349895E+02   -0.39624E-05   -0.47195E-06    64   0.200E-02
  48 F= -.35535535E+02 E0= -.35535535E+02  d E =-.700655E-02
damped:  g(F)=  0.000E+00 g(S)=  0.000E+00 dE (1.order)= 0.000E+00
 bond charge predicted
       N       E                     dE             d eps       ncg     rms          rms(c)
DAV:   1    -0.355424811265E+02   -0.69501E-02   -0.24483E-01    96   0.473E+00    0.996E-02
DAV:   2    -0.355425229219E+02   -0.41795E-04   -0.25063E-03   128   0.392E-01    0.635E-02
DAV:   3    -0.355425314069E+02   -0.84850E-05   -0.88972E-05    96   0.965E-02    0.211E-02
DAV:   4    -0.355425527411E+02   -0.21334E-04   -0.41068E-05    64   0.577E-02    0.618E-03
DAV:   5    -0.355425572539E+02   -0.45127E-05   -0.79237E-06    48   0.252E-02    0.345E-03
DAV:   6    -0.355425621308E+02   -0.48769E-05   -0.27496E-06    64   0.146E-02
  49 F= -.35542562E+02 E0= -.35542562E+02  d E =-.702714E-02
damped:  g(F)=  0.000E+00 g(S)=  0.000E+00 dE (1.order)= 0.000E+00
 bond charge predicted
       N       E                     dE             d eps       ncg     rms          rms(c)
DAV:   1    -0.355425877645E+02   -0.30511E-04   -0.11282E-04    48   0.106E-01    0.344E-03
DAV:   2    -0.355425905429E+02   -0.27785E-05   -0.60183E-06    80   0.251E-02    0.178E-03
DAV:   3    -0.355425927263E+02   -0.21834E-05   -0.74379E-07    48   0.825E-03    0.121E-03
DAV:   4    -0.355425969353E+02   -0.42089E-05   -0.43458E-07    80   0.572E-03    0.369E-04
DAV:   5    -0.355425984419E+02   -0.15066E-05   -0.14694E-07    48   0.280E-03    0.355E-04
DAV:   6    -0.355425998213E+02   -0.13795E-05   -0.76276E-08    48   0.164E-03
  50 F= -.35542600E+02 E0= -.35542600E+02  d E =-.376906E-04
damped:  g(F)=  0.000E+00 g(S)=  0.000E+00 dE (1.order)= 0.000E+00
 bond charge predicted
       N       E                     dE             d eps       ncg     rms          rms(c)
DAV:   1    -0.355426236025E+02   -0.25161E-04   -0.43361E-04   128   0.204E-01    0.690E-03
DAV:   2    -0.355426237905E+02   -0.18797E-06   -0.76751E-06    64   0.259E-02    0.318E-03
DAV:   3    -0.355426243720E+02   -0.58153E-06   -0.14157E-06    48   0.115E-02    0.160E-03
DAV:   4    -0.355426252326E+02   -0.86059E-06   -0.61181E-07    80   0.728E-03    0.612E-04
DAV:   5    -0.355426257189E+02   -0.48631E-06   -0.13176E-07    48   0.340E-03    0.374E-04
DAV:   6    -0.355426261803E+02   -0.46143E-06   -0.50258E-08    64   0.185E-03
  51 F= -.35542626E+02 E0= -.35542626E+02  d E =-.263590E-04
damped:  g(F)=  0.000E+00 g(S)=  0.000E+00 dE (1.order)= 0.000E+00
 bond charge predicted
       N       E                     dE             d eps       ncg     rms          rms(c)
DAV:   1    -0.355426343859E+02   -0.86670E-05   -0.83827E-04    96   0.283E-01    0.931E-03
DAV:   2    -0.355426336373E+02    0.74862E-06   -0.13826E-05    72   0.350E-02    0.425E-03
DAV:   3    -0.355426337816E+02   -0.14436E-06   -0.24307E-06    72   0.151E-02    0.211E-03
DAV:   4    -0.355426340856E+02   -0.30396E-06   -0.99535E-07    72   0.935E-03    0.791E-04
DAV:   5    -0.355426342118E+02   -0.12619E-06   -0.20730E-07    64   0.434E-03    0.489E-04
DAV:   6    -0.355426343300E+02   -0.11821E-06   -0.70878E-08    64   0.233E-03
  52 F= -.35542634E+02 E0= -.35542634E+02  d E =-.814965E-05
damped:  g(F)=  0.000E+00 g(S)=  0.000E+00 dE (1.order)= 0.000E+00
 bond charge predicted
       N       E                     dE             d eps       ncg     rms          rms(c)
DAV:   1    -0.355426484735E+02   -0.14262E-04   -0.11834E-03    96   0.337E-01    0.107E-02
DAV:   2    -0.355426471834E+02    0.12901E-05   -0.19283E-05    64   0.413E-02    0.504E-03
DAV:   3    -0.355426471696E+02    0.13780E-07   -0.33560E-06    96   0.177E-02    0.250E-03
DAV:   4    -0.355426472958E+02   -0.12622E-06   -0.13247E-06    64   0.108E-02    0.917E-04
DAV:   5    -0.355426473387E+02   -0.42858E-07   -0.27736E-07    48   0.500E-03    0.557E-04
DAV:   6    -0.355426474040E+02   -0.65390E-07   -0.95268E-08    80   0.268E-03
  53 F= -.35542647E+02 E0= -.35542647E+02  d E =-.130741E-04
damped:  g(F)=  0.000E+00 g(S)=  0.000E+00 dE (1.order)= 0.000E+00
 bond charge predicted
       N       E                     dE             d eps       ncg     rms          rms(c)
DAV:   1    -0.355427315673E+02   -0.84229E-04   -0.13277E-03    96   0.356E-01    0.115E-02
DAV:   2    -0.355427301458E+02    0.14215E-05   -0.22771E-05    64   0.446E-02    0.567E-03
DAV:   3    -0.355427301622E+02   -0.16473E-07   -0.40198E-06    48   0.193E-02    0.280E-03
DAV:   4    -0.355427303625E+02   -0.20024E-06   -0.15455E-06    48   0.117E-02    0.996E-04
DAV:   5    -0.355427304194E+02   -0.56892E-07   -0.31741E-07    48   0.537E-03    0.568E-04
DAV:   6    -0.355427305046E+02   -0.85178E-07   -0.10649E-07    48   0.282E-03
  54 F= -.35542731E+02 E0= -.35542731E+02  d E =-.831005E-04
damped:  g(F)=  0.000E+00 g(S)=  0.000E+00 dE (1.order)= 0.000E+00
 bond charge predicted
       N       E                     dE             d eps       ncg     rms          rms(c)
DAV:   1    -0.355429815546E+02   -0.25114E-03   -0.13377E-03    96   0.358E-01    0.121E-02
DAV:   2    -0.355429801306E+02    0.14240E-05   -0.24885E-05    64   0.461E-02    0.643E-03
DAV:   3    -0.355429801721E+02   -0.41485E-07   -0.44783E-06    48   0.205E-02    0.318E-03
DAV:   4    -0.355429804985E+02   -0.32645E-06   -0.17226E-06    48   0.124E-02    0.113E-03
DAV:   5    -0.355429805877E+02   -0.89110E-07   -0.34782E-07    48   0.569E-03    0.566E-04
DAV:   6    -0.355429806906E+02   -0.10298E-06   -0.11160E-07    48   0.285E-03
  55 F= -.35542981E+02 E0= -.35542981E+02  d E =-.250186E-03
damped:  g(F)=  0.000E+00 g(S)=  0.000E+00 dE (1.order)= 0.000E+00
 bond charge predicted
       N       E                     dE             d eps       ncg     rms          rms(c)
DAV:   1    -0.355435674775E+02   -0.58689E-03   -0.21773E-03    96   0.457E-01    0.153E-02
DAV:   2    -0.355435655643E+02    0.19132E-05   -0.37438E-05    64   0.560E-02    0.879E-03
DAV:   3    -0.355435656355E+02   -0.71159E-07   -0.67388E-06    48   0.255E-02    0.403E-03
DAV:   4    -0.355435662746E+02   -0.63914E-06   -0.27081E-06    48   0.155E-02    0.150E-03
DAV:   5    -0.355435663908E+02   -0.11615E-06   -0.52215E-07    48   0.716E-03    0.716E-04
DAV:   6    -0.355435665213E+02   -0.13052E-06   -0.18435E-07    48   0.372E-03
  56 F= -.35543567E+02 E0= -.35543567E+02  d E =-.585831E-03
damped:  g(F)=  0.000E+00 g(S)=  0.000E+00 dE (1.order)= 0.000E+00
 bond charge predicted
       N       E                     dE             d eps       ncg     rms          rms(c)
DAV:   1    -0.355445644230E+02   -0.99803E-03   -0.44198E-03    96   0.642E-01    0.188E-02
DAV:   2    -0.355445619646E+02    0.24584E-05   -0.51874E-05    64   0.648E-02    0.114E-02
DAV:   3    -0.355445630831E+02   -0.11185E-05   -0.10046E-05    52   0.310E-02    0.383E-03
DAV:   4    -0.355445639837E+02   -0.90056E-06   -0.30816E-06    48   0.159E-02    0.171E-03
DAV:   5    -0.355445641500E+02   -0.16629E-06   -0.59912E-07    48   0.728E-03    0.759E-04
DAV:   6    -0.355445643632E+02   -0.21322E-06   -0.30003E-07    48   0.456E-03
  57 F= -.35544564E+02 E0= -.35544564E+02  d E =-.997842E-03
damped:  g(F)=  0.000E+00 g(S)=  0.000E+00 dE (1.order)= 0.000E+00
 bond charge predicted
       N       E                     dE             d eps       ncg     rms          rms(c)
DAV:   1    -0.355460937840E+02   -0.15296E-02   -0.96622E-03    96   0.938E-01    0.239E-02
DAV:   2    -0.355460900576E+02    0.37264E-05   -0.81163E-05    80   0.779E-02    0.146E-02
DAV:   3    -0.355460945737E+02   -0.45162E-05   -0.15865E-05    64   0.371E-02    0.311E-03
DAV:   4    -0.355460951099E+02   -0.53619E-06   -0.36823E-06    48   0.160E-02    0.189E-03
DAV:   5    -0.355460953679E+02   -0.25797E-06   -0.94050E-07    64   0.802E-03    0.857E-04
DAV:   6    -0.355460956362E+02   -0.26834E-06   -0.42221E-07    68   0.532E-03
  58 F= -.35546096E+02 E0= -.35546096E+02  d E =-.153127E-02
damped:  g(F)=  0.000E+00 g(S)=  0.000E+00 dE (1.order)= 0.000E+00
 bond charge predicted
       N       E                     dE             d eps       ncg     rms          rms(c)
DAV:   1    -0.355483117977E+02   -0.22164E-02   -0.21007E-02    96   0.138E+00    0.325E-02
DAV:   2    -0.355483077184E+02    0.40793E-05   -0.19003E-04   112   0.109E-01    0.205E-02
DAV:   3    -0.355483142121E+02   -0.64937E-05   -0.84724E-06    96   0.278E-02    0.417E-03
DAV:   4    -0.355483147918E+02   -0.57979E-06   -0.24686E-06    64   0.131E-02    0.186E-03
DAV:   5    -0.355483151780E+02   -0.38611E-06   -0.47807E-07    48   0.553E-03    0.862E-04
DAV:   6    -0.355483155484E+02   -0.37045E-06   -0.18102E-07    64   0.313E-03
  59 F= -.35548316E+02 E0= -.35548316E+02  d E =-.221991E-02
damped:  g(F)=  0.000E+00 g(S)=  0.000E+00 dE (1.order)= 0.000E+00
 bond charge predicted
       N       E                     dE             d eps       ncg     rms          rms(c)
DAV:   1    -0.355513455375E+02   -0.30304E-02   -0.42563E-02    96   0.197E+00    0.453E-02
DAV:   2    -0.355513386990E+02    0.68385E-05   -0.40427E-04   128   0.162E-01    0.279E-02
DAV:   3    -0.355513452209E+02   -0.65219E-05   -0.16210E-05    80   0.392E-02    0.827E-03
DAV:   4    -0.355513490930E+02   -0.38721E-05   -0.56637E-06    64   0.205E-02    0.263E-03
DAV:   5    -0.355513498481E+02   -0.75518E-06   -0.11694E-06    48   0.908E-03    0.126E-03
DAV:   6    -0.355513505360E+02   -0.68788E-06   -0.35931E-07    64   0.457E-03
  60 F= -.35551351E+02 E0= -.35551351E+02  d E =-.303499E-02
damped:  g(F)=  0.000E+00 g(S)=  0.000E+00 dE (1.order)= 0.000E+00
 bond charge predicted
       N       E                     dE             d eps       ncg     rms          rms(c)
DAV:   1    -0.355552436206E+02   -0.38938E-02   -0.76718E-02    96   0.265E+00    0.599E-02
DAV:   2    -0.355552373118E+02    0.63088E-05   -0.75412E-04   128   0.221E-01    0.369E-02
DAV:   3    -0.355552431062E+02   -0.57944E-05   -0.30567E-05    80   0.549E-02    0.122E-02
DAV:   4    -0.355552511985E+02   -0.80923E-05   -0.12146E-05    64   0.311E-02    0.374E-03
DAV:   5    -0.355552525634E+02   -0.13649E-05   -0.24458E-06    48   0.138E-02    0.183E-03
DAV:   6    -0.355552537846E+02   -0.12212E-05   -0.74934E-07    64   0.718E-03
  61 F= -.35555254E+02 E0= -.35555254E+02  d E =-.390325E-02
damped:  g(F)=  0.000E+00 g(S)=  0.000E+00 dE (1.order)= 0.000E+00
 bond charge predicted
       N       E                     dE             d eps       ncg     rms          rms(c)
DAV:   1    -0.355600664272E+02   -0.48139E-02   -0.12192E-01    96   0.334E+00    0.734E-02
DAV:   2    -0.355600729597E+02   -0.65325E-05   -0.11837E-03   128   0.272E-01    0.463E-02
DAV:   3    -0.355600848959E+02   -0.11936E-04   -0.44652E-05    80   0.651E-02    0.129E-02
DAV:   4    -0.355600937308E+02   -0.88348E-05   -0.15679E-05    64   0.342E-02    0.440E-03
DAV:   5    -0.355600960365E+02   -0.23057E-05   -0.31762E-06    48   0.151E-02    0.235E-03
DAV:   6    -0.355600981854E+02   -0.21489E-05   -0.10753E-06    64   0.833E-03
  62 F= -.35560098E+02 E0= -.35560098E+02  d E =-.484440E-02
damped:  g(F)=  0.000E+00 g(S)=  0.000E+00 dE (1.order)= 0.000E+00
 bond charge predicted
       N       E                     dE             d eps       ncg     rms          rms(c)
DAV:   1    -0.355659085267E+02   -0.58125E-02   -0.17945E-01    96   0.404E+00    0.878E-02
DAV:   2    -0.355659425262E+02   -0.33999E-04   -0.17702E-03   128   0.325E-01    0.574E-02
DAV:   3    -0.355659654854E+02   -0.22959E-04   -0.67239E-05    80   0.782E-02    0.136E-02
DAV:   4    -0.355659729297E+02   -0.74443E-05   -0.19690E-05    64   0.377E-02    0.527E-03
DAV:   5    -0.355659765867E+02   -0.36570E-05   -0.43089E-06    48   0.167E-02    0.271E-03
DAV:   6    -0.355659797031E+02   -0.31164E-05   -0.13150E-06    52   0.849E-03
  63 F= -.35565980E+02 E0= -.35565980E+02  d E =-.588152E-02
damped:  g(F)=  0.000E+00 g(S)=  0.000E+00 dE (1.order)= 0.000E+00
 bond charge predicted
       N       E                     dE             d eps       ncg     rms          rms(c)
DAV:   1    -0.355727028493E+02   -0.67263E-02   -0.26365E-01    96   0.490E+00    0.106E-01
DAV:   2    -0.355727660208E+02   -0.63171E-04   -0.26628E-03   128   0.396E-01    0.705E-02
DAV:   3    -0.355727955689E+02   -0.29548E-04   -0.10454E-04    80   0.982E-02    0.171E-02
DAV:   4    -0.355728072912E+02   -0.11722E-04   -0.29179E-05    64   0.462E-02    0.644E-03
DAV:   5    -0.355728121491E+02   -0.48579E-05   -0.66385E-06    48   0.207E-02    0.336E-03
DAV:   6    -0.355728160336E+02   -0.38845E-05   -0.19520E-06    56   0.107E-02
  64 F= -.35572816E+02 E0= -.35572816E+02  d E =-.683633E-02
damped:  g(F)=  0.000E+00 g(S)=  0.000E+00 dE (1.order)= 0.000E+00
 bond charge predicted
       N       E                     dE             d eps       ncg     rms          rms(c)
DAV:   1    -0.355803793600E+02   -0.75672E-02   -0.38654E-01    96   0.592E+00    0.128E-01
DAV:   2    -0.355804645233E+02   -0.85163E-04   -0.38097E-03   128   0.476E-01    0.837E-02
DAV:   3    -0.355805009685E+02   -0.36445E-04   -0.16123E-04   112   0.112E-01    0.198E-02
DAV:   4    -0.355805161522E+02   -0.15184E-04   -0.29234E-05    64   0.470E-02    0.785E-03
DAV:   5    -0.355805218620E+02   -0.57098E-05   -0.41914E-06    48   0.187E-02    0.370E-03
DAV:   6    -0.355805267989E+02   -0.49369E-05   -0.14631E-06    64   0.960E-03
  65 F= -.35580527E+02 E0= -.35580527E+02  d E =-.771077E-02
damped:  g(F)=  0.000E+00 g(S)=  0.000E+00 dE (1.order)= 0.000E+00
 bond charge predicted
       N       E                     dE             d eps       ncg     rms          rms(c)
DAV:   1    -0.355886373054E+02   -0.81154E-02   -0.53071E-01    96   0.693E+00    0.151E-01
DAV:   2    -0.355887322415E+02   -0.94936E-04   -0.52451E-03   128   0.566E-01    0.991E-02
DAV:   3    -0.355887634603E+02   -0.31219E-04   -0.24620E-04   128   0.144E-01    0.253E-02
DAV:   4    -0.355887903833E+02   -0.26923E-04   -0.43689E-05    64   0.582E-02    0.947E-03
DAV:   5    -0.355887981251E+02   -0.77418E-05   -0.60359E-06    68   0.225E-02    0.439E-03
DAV:   6    -0.355888045845E+02   -0.64594E-05   -0.25433E-06    64   0.132E-02
  66 F= -.35588805E+02 E0= -.35588805E+02  d E =-.827779E-02
damped:  g(F)=  0.000E+00 g(S)=  0.000E+00 dE (1.order)= 0.000E+00
 bond charge predicted
       N       E                     dE             d eps       ncg     rms          rms(c)
DAV:   1    -0.355969663546E+02   -0.81682E-02   -0.56802E-01    96   0.714E+00    0.161E-01
DAV:   2    -0.355970753043E+02   -0.10895E-03   -0.55172E-03   128   0.571E-01    0.107E-01
DAV:   3    -0.355971568525E+02   -0.81548E-04   -0.27235E-04   112   0.145E-01    0.199E-02
DAV:   4    -0.355971664406E+02   -0.95881E-05   -0.47069E-05    64   0.572E-02    0.923E-03
DAV:   5    -0.355971754392E+02   -0.89985E-05   -0.71532E-06    48   0.229E-02    0.417E-03
DAV:   6    -0.355971838476E+02   -0.84084E-05   -0.22595E-06    64   0.114E-02
  67 F= -.35597184E+02 E0= -.35597184E+02  d E =-.837926E-02
damped:  g(F)=  0.000E+00 g(S)=  0.000E+00 dE (1.order)= 0.000E+00
 bond charge predicted
       N       E                     dE             d eps       ncg     rms          rms(c)
DAV:   1    -0.356046804536E+02   -0.75050E-02   -0.58745E-01    96   0.724E+00    0.171E-01
DAV:   2    -0.356047638674E+02   -0.83414E-04   -0.56866E-03   128   0.584E-01    0.114E-01
DAV:   3    -0.356048673748E+02   -0.10351E-03   -0.32711E-04   112   0.159E-01    0.195E-02
DAV:   4    -0.356048723340E+02   -0.49591E-05   -0.54261E-05    80   0.587E-02    0.100E-02
DAV:   5    -0.356048828843E+02   -0.10550E-04   -0.87563E-06    64   0.244E-02    0.358E-03
DAV:   6    -0.356048908624E+02   -0.79781E-05   -0.23459E-06    48   0.115E-02
  68 F= -.35604891E+02 E0= -.35604891E+02  d E =-.770701E-02
damped:  g(F)=  0.000E+00 g(S)=  0.000E+00 dE (1.order)= 0.000E+00
 bond charge predicted
       N       E                     dE             d eps       ncg     rms          rms(c)
DAV:   1    -0.356102651023E+02   -0.53822E-02   -0.56442E-01    96   0.706E+00    0.178E-01
DAV:   2    -0.356102906543E+02   -0.25552E-04   -0.56363E-03   128   0.590E-01    0.119E-01
DAV:   3    -0.356103728452E+02   -0.82191E-04   -0.50830E-04   128   0.207E-01    0.226E-02
DAV:   4    -0.356103859118E+02   -0.13067E-04   -0.61805E-05    80   0.710E-02    0.128E-02
DAV:   5    -0.356103993329E+02   -0.13421E-04   -0.15659E-05    64   0.367E-02    0.345E-03
DAV:   6    -0.356104074647E+02   -0.81318E-05   -0.32568E-06    64   0.150E-02
  69 F= -.35610407E+02 E0= -.35610407E+02  d E =-.551660E-02
damped:  g(F)=  0.000E+00 g(S)=  0.000E+00 dE (1.order)= 0.000E+00
 bond charge predicted
       N       E                     dE             d eps       ncg     rms          rms(c)
DAV:   1    -0.356102896906E+02    0.10964E-03   -0.25247E-03    96   0.486E-01    0.145E-02
DAV:   2    -0.356102933068E+02   -0.36162E-05   -0.40548E-05    64   0.573E-02    0.727E-03
DAV:   3    -0.356102969375E+02   -0.36307E-05   -0.68569E-06    48   0.244E-02    0.407E-03
DAV:   4    -0.356103027286E+02   -0.57911E-05   -0.32441E-06    84   0.169E-02    0.127E-03
DAV:   5    -0.356103056828E+02   -0.29541E-05   -0.74688E-07    56   0.778E-03    0.783E-04
DAV:   6    -0.356103082036E+02   -0.25208E-05   -0.25093E-07    56   0.405E-03
  70 F= -.35610308E+02 E0= -.35610308E+02  d E =0.992611E-04
damped:  g(F)=  0.000E+00 g(S)=  0.000E+00 dE (1.order)= 0.000E+00
 bond charge predicted
       N       E                     dE             d eps       ncg     rms          rms(c)
DAV:   1    -0.356099340561E+02    0.37163E-03   -0.73330E-03    96   0.827E-01    0.233E-02
DAV:   2    -0.356099327323E+02    0.13238E-05   -0.10413E-04    76   0.923E-02    0.115E-02
DAV:   3    -0.356099331605E+02   -0.42824E-06   -0.17193E-05    96   0.388E-02    0.610E-03
DAV:   4    -0.356099348681E+02   -0.17076E-05   -0.73852E-06    64   0.259E-02    0.181E-03
DAV:   5    -0.356099355293E+02   -0.66125E-06   -0.15359E-06    92   0.117E-02    0.116E-03
DAV:   6    -0.356099361137E+02   -0.58437E-06   -0.37011E-07    64   0.578E-03
  71 F= -.35609936E+02 E0= -.35609936E+02  d E =0.372090E-03
damped:  g(F)=  0.000E+00 g(S)=  0.000E+00 dE (1.order)= 0.000E+00
 bond charge predicted
       N       E                     dE             d eps       ncg     rms          rms(c)
DAV:   1    -0.356092384888E+02    0.69704E-03   -0.98421E-03    96   0.954E-01    0.228E-02
DAV:   2    -0.356092391040E+02   -0.61528E-06   -0.10923E-04    96   0.934E-02    0.111E-02
DAV:   3    -0.356092394323E+02   -0.32822E-06   -0.16078E-05    96   0.367E-02    0.560E-03
DAV:   4    -0.356092401305E+02   -0.69819E-06   -0.54101E-06    64   0.218E-02    0.152E-03
DAV:   5    -0.356092403858E+02   -0.25537E-06   -0.13300E-06    60   0.102E-02    0.110E-03
DAV:   6    -0.356092406660E+02   -0.28019E-06   -0.35874E-07    88   0.529E-03
  72 F= -.35609241E+02 E0= -.35609241E+02  d E =0.695448E-03
damped:  g(F)=  0.000E+00 g(S)=  0.000E+00 dE (1.order)= 0.000E+00
 bond charge predicted
       N       E                     dE             d eps       ncg     rms          rms(c)
DAV:   1    -0.356083279287E+02    0.91246E-03   -0.99885E-03    96   0.959E-01    0.173E-02
DAV:   2    -0.356083334864E+02   -0.55577E-05   -0.10185E-04    64   0.847E-02    0.105E-02
DAV:   3    -0.356083345940E+02   -0.11076E-05   -0.13880E-05    48   0.337E-02    0.543E-03
DAV:   4    -0.356083354870E+02   -0.89303E-06   -0.35987E-06    64   0.162E-02    0.223E-03
DAV:   5    -0.356083357931E+02   -0.30607E-06   -0.10529E-06    48   0.843E-03    0.112E-03
DAV:   6    -0.356083361239E+02   -0.33082E-06   -0.34408E-07    64   0.485E-03
  73 F= -.35608336E+02 E0= -.35608336E+02  d E =0.904542E-03
damped:  g(F)=  0.000E+00 g(S)=  0.000E+00 dE (1.order)= 0.000E+00
 bond charge predicted
       N       E                     dE             d eps       ncg     rms          rms(c)
DAV:   1    -0.356072603855E+02    0.10754E-02   -0.11284E-02    96   0.102E+00    0.191E-02
DAV:   2    -0.356072686395E+02   -0.82540E-05   -0.15322E-04   112   0.986E-02    0.145E-02
DAV:   3    -0.356072673597E+02    0.12798E-05   -0.69529E-06    64   0.266E-02    0.823E-03
DAV:   4    -0.356072683026E+02   -0.94291E-06   -0.27853E-06    96   0.168E-02    0.269E-03
DAV:   5    -0.356072686362E+02   -0.33360E-06   -0.79448E-07    64   0.777E-03    0.113E-03
DAV:   6    -0.356072688420E+02   -0.20578E-06   -0.19310E-07    64   0.405E-03
  74 F= -.35607269E+02 E0= -.35607269E+02  d E =0.106728E-02
damped:  g(F)=  0.000E+00 g(S)=  0.000E+00 dE (1.order)= 0.000E+00
 reached required accuracy - stopping structural energy minimisation
