unknown system                          
           1
    30.000000    0.000000    0.000000
     0.000000   30.000000    0.000000
     0.000000    0.000000   30.000000
   H    C    N 
   3   2   1
Direct configuration=     1
   0.47561720  0.46764634  0.50829173
   0.47541560  0.51218086  0.46896476
   0.46929984  0.52418111  0.52747017
   0.48501679  0.50262287  0.50296901
   0.56163139  0.48761747  0.48595623
   0.53301338  0.50579148  0.50629301
Direct configuration=     2
   0.47553348  0.46760486  0.50833303
   0.47532814  0.51221831  0.46893017
   0.46940978  0.52419505  0.52748564
   0.48499641  0.50257968  0.50292227
   0.56171256  0.48766258  0.48600006
   0.53301514  0.50577726  0.50627537
Direct configuration=     3
   0.47541755  0.46755472  0.50838662
   0.47520668  0.51226459  0.46888924
   0.46957252  0.52420646  0.52749818
   0.48496959  0.50252526  0.50286440
   0.56181612  0.48773160  0.48606669
   0.53301502  0.50575153  0.50624386
Direct configuration=     4
   0.47528108  0.46750898  0.50844206
   0.47506295  0.51230752  0.46885368
   0.46978612  0.52420903  0.52750047
   0.48494581  0.50246327  0.50279972
   0.56193013  0.48781293  0.48614352
   0.53299407  0.50572758  0.50621286
Direct configuration=     5
   0.47514015  0.46748255  0.50848602
   0.47491289  0.51233160  0.46883691
   0.47003658  0.52420199  0.52749173
   0.48493357  0.50239661  0.50273168
   0.56202267  0.48790339  0.48622672
   0.53295772  0.50570694  0.50618351
Direct configuration=     6
   0.47501646  0.46747909  0.50850539
   0.47477846  0.51232337  0.46884172
   0.47028993  0.52419221  0.52747988
   0.48493690  0.50233347  0.50266926
   0.56206444  0.48798885  0.48629989
   0.53292153  0.50569855  0.50616559
Direct configuration=     7
   0.47501932  0.46747981  0.50850237
   0.47478105  0.51231948  0.46884236
   0.47028849  0.52419270  0.52748052
   0.48493823  0.50233498  0.50267099
   0.56205943  0.48798520  0.48629513
   0.53292133  0.50570317  0.50617048
Direct configuration=     8
   0.47502496  0.46748131  0.50849649
   0.47478613  0.51231185  0.46884371
   0.47028528  0.52419378  0.52748191
   0.48494065  0.50233808  0.50267460
   0.56204939  0.48797856  0.48628629
   0.53292164  0.50571141  0.50617910
Direct configuration=     9
   0.47503332  0.46748370  0.50848804
   0.47479357  0.51230069  0.46884586
   0.47027977  0.52419558  0.52748421
   0.48494379  0.50234288  0.50268030
   0.56203425  0.48796996  0.48627450
   0.53292365  0.50572163  0.50618957
Direct configuration=    10
   0.47504427  0.46748704  0.50847746
   0.47480316  0.51228642  0.46884885
   0.47027139  0.52419829  0.52748762
   0.48494722  0.50234940  0.50268830
   0.56201436  0.48796044  0.48626084
   0.53292835  0.50573211  0.50619991
Direct configuration=    11
   0.47505768  0.46749134  0.50846537
   0.47481465  0.51226959  0.46885270
   0.47025962  0.52420209  0.52749233
   0.48495072  0.50235759  0.50269864
   0.56199111  0.48795040  0.48624574
   0.53293548  0.50574178  0.50620882
Direct configuration=    12
   0.47507342  0.46749658  0.50845255
   0.47482777  0.51225086  0.46885741
   0.47024403  0.52420717  0.52749852
   0.48495425  0.50236728  0.50271142
   0.56196724  0.48793948  0.48622862
   0.53294315  0.50575031  0.50621583
Direct configuration=    13
   0.47509296  0.46750332  0.50843872
   0.47484361  0.51222924  0.46886366
   0.47022208  0.52421439  0.52750720
   0.48495808  0.50237946  0.50272797
   0.56194498  0.48792576  0.48620671
   0.53294892  0.50575810  0.50622107
Direct configuration=    14
   0.47511556  0.46751169  0.50842554
   0.47486139  0.51220629  0.46887186
   0.47019255  0.52422408  0.52751872
   0.48496156  0.50239431  0.50274842
   0.56193021  0.48790998  0.48618074
   0.53295033  0.50576218  0.50622123
Direct configuration=    15
   0.47513958  0.46752192  0.50841515
   0.47487958  0.51218421  0.46888274
   0.47015432  0.52423643  0.52753333
   0.48496311  0.50241215  0.50277258
   0.56192851  0.48789571  0.48615485
   0.53294762  0.50575606  0.50620925
Direct configuration=    16
   0.47516289  0.46753470  0.50841010
   0.47489615  0.51216551  0.46889745
   0.47010584  0.52425183  0.52755148
   0.48496079  0.50243334  0.50280041
   0.56194771  0.48788761  0.48613429
   0.53294061  0.50573119  0.50617575
Direct configuration=    17
   0.47518245  0.46755131  0.50841384
   0.47490805  0.51215343  0.46891776
   0.47004514  0.52427100  0.52757407
   0.48495243  0.50245840  0.50283210
   0.56200289  0.48788991  0.48612361
   0.53292443  0.50567758  0.50610985
Direct configuration=    18
   0.47519327  0.46757400  0.50843093
   0.47491022  0.51215242  0.46894619
   0.46997027  0.52429524  0.52760253
   0.48493556  0.50248713  0.50286774
   0.56211934  0.48790760  0.48612811
   0.53288826  0.50558247  0.50599763
Direct configuration=    19
   0.47518673  0.46760630  0.50846719
   0.47489393  0.51216822  0.46898622
   0.46987923  0.52432670  0.52763919
   0.48490608  0.50251906  0.50290783
   0.56233140  0.48795202  0.48615984
   0.53282119  0.50542358  0.50581488
Direct configuration=    20
   0.47514802  0.46765286  0.50852995
   0.47484443  0.51220775  0.46904306
   0.46977092  0.52436881  0.52768804
   0.48485716  0.50255435  0.50295217
   0.56267999  0.48804538  0.48624398
   0.53271977  0.50516359  0.50552010
Direct configuration=    21
   0.47505311  0.46771795  0.50862720
   0.47473807  0.51227841  0.46912217
   0.46965361  0.52442606  0.52775429
   0.48478206  0.50258876  0.50299588
   0.56321882  0.48821680  0.48641192
   0.53257639  0.50476154  0.50506806
Direct configuration=    22
   0.47486294  0.46780309  0.50876617
   0.47453660  0.51238730  0.46922662
   0.46955697  0.52450277  0.52784240
   0.48468182  0.50260974  0.50302380
   0.56400919  0.48849846  0.48670033
   0.53237632  0.50418492  0.50442240
Direct configuration=    23
   0.47451872  0.46790600  0.50895060
   0.47418248  0.51253894  0.46935503
   0.46954236  0.52459928  0.52795162
   0.48455495  0.50259806  0.50301398
   0.56505555  0.48896252  0.48719145
   0.53217153  0.50337830  0.50352121
Direct configuration=    24
   0.47394290  0.46801023  0.50917119
   0.47359992  0.51272664  0.46948996
   0.46977554  0.52469774  0.52806031
   0.48444626  0.50249988  0.50291126
   0.56635071  0.48963438  0.48790734
   0.53191194  0.50241121  0.50244590
Direct configuration=    25
   0.47310790  0.46809069  0.50938623
   0.47276575  0.51291161  0.46960599
   0.47044940  0.52475079  0.52811308
   0.48433535  0.50227787  0.50267225
   0.56731078  0.49063526  0.48899347
   0.53205960  0.50131112  0.50121683
Direct configuration=    26
   0.47311719  0.46805405  0.50934846
   0.47277754  0.51287843  0.46956665
   0.47061417  0.52471110  0.52806770
   0.48443530  0.50221970  0.50260515
   0.56739262  0.49049347  0.48883381
   0.53169184  0.50162080  0.50156593
Direct configuration=    27
   0.47311138  0.46805161  0.50934458
   0.47277214  0.51287482  0.46956403
   0.47063586  0.52470667  0.52806261
   0.48442850  0.50221700  0.50260209
   0.56735284  0.49050571  0.48884775
   0.53172792  0.50162176  0.50156662
Direct configuration=    28
   0.47310089  0.46804595  0.50933614
   0.47276246  0.51286703  0.46955793
   0.47068084  0.52469745  0.52805200
   0.48441823  0.50221048  0.50259473
   0.56727975  0.49052495  0.48886967
   0.53178644  0.50163174  0.50157717
Direct configuration=    29
   0.47308796  0.46803568  0.50932205
   0.47275073  0.51285414  0.46954677
   0.47075119  0.52468297  0.52803538
   0.48441062  0.50219819  0.50258088
   0.56718660  0.49054110  0.48888814
   0.53184147  0.50166562  0.50161437
Direct configuration=    30
   0.47307530  0.46801997  0.50930192
   0.47273958  0.51283590  0.46952962
   0.47084503  0.52466369  0.52801324
   0.48441117  0.50217906  0.50255942
   0.56709018  0.49054408  0.48889178
   0.53186725  0.50173511  0.50169153
Direct configuration=    31
   0.47306462  0.46799879  0.50927598
   0.47273059  0.51281252  0.46950637
   0.47095860  0.52464061  0.52798676
   0.48442169  0.50215337  0.50253071
   0.56700076  0.49052933  0.48887536
   0.53185217  0.50184335  0.50181222
Direct configuration=    32
   0.47305618  0.46797263  0.50924475
   0.47272396  0.51278443  0.46947757
   0.47108732  0.52461522  0.52795766
   0.48443996  0.50212264  0.50249645
   0.56692016  0.49049875  0.48884098
   0.53180075  0.50198447  0.50196988
Direct configuration=    33
   0.47304804  0.46793863  0.50920427
   0.47271788  0.51274800  0.46943995
   0.47124256  0.52458685  0.52792514
   0.48446141  0.50208589  0.50245576
   0.56683420  0.49045586  0.48879246
   0.53172410  0.50216315  0.50216954
Direct configuration=    34
   0.47303480  0.46789786  0.50915328
   0.47270698  0.51270177  0.46939445
   0.47141661  0.52456153  0.52789623
   0.48446315  0.50205101  0.50241740
   0.56671949  0.49042898  0.48876153
   0.53168700  0.50233754  0.50236402
Direct configuration=    35
   0.47303405  0.46789774  0.50915268
   0.47270623  0.51270118  0.46939425
   0.47141603  0.52456261  0.52789747
   0.48446011  0.50205199  0.50241853
   0.56671740  0.49043257  0.48876554
   0.53169420  0.50233261  0.50235844
Direct configuration=    36
   0.47303221  0.46789778  0.50915166
   0.47270441  0.51270016  0.46939417
   0.47141442  0.52456499  0.52790020
   0.48445400  0.50205422  0.50242108
   0.56671689  0.49043979  0.48877358
   0.53170609  0.50232177  0.50234620
Direct configuration=    37
   0.47302893  0.46789828  0.50915048
   0.47270117  0.51269892  0.46939452
   0.47141135  0.52456891  0.52790470
   0.48444509  0.50205789  0.50242525
   0.56672242  0.49045038  0.48878534
   0.53171905  0.50230435  0.50232660
Direct configuration=    38
   0.47302397  0.46789950  0.50914935
   0.47269626  0.51269764  0.46939560
   0.47140652  0.52457452  0.52791112
   0.48443391  0.50206303  0.50243111
   0.56673807  0.49046389  0.48880025
   0.53172927  0.50228016  0.50229945
Direct configuration=    39
   0.47301743  0.46790137  0.50914820
   0.47268978  0.51269626  0.46939732
   0.47140028  0.52458176  0.52791942
   0.48442121  0.50206931  0.50243826
   0.56676427  0.49047963  0.48881751
   0.53173503  0.50225042  0.50226615
Direct configuration=    40
   0.47300936  0.46790385  0.50914700
   0.47268179  0.51269476  0.46939964
   0.47139293  0.52459060  0.52792954
   0.48440774  0.50207632  0.50244625
   0.56680093  0.49049715  0.48883665
   0.53173522  0.50221610  0.50222777
Direct configuration=    41
   0.47299861  0.46790731  0.50914563
   0.47267115  0.51269296  0.46940293
   0.47138385  0.52460221  0.52794283
   0.48439267  0.50208446  0.50245552
   0.56685297  0.49051855  0.48885992
   0.53172870  0.50217332  0.50218001
Direct configuration=    42
   0.47298433  0.46791210  0.50914412
   0.47265701  0.51269085  0.46940753
   0.47137303  0.52461726  0.52796006
   0.48437639  0.50209340  0.50246571
   0.56692222  0.49054528  0.48888890
   0.53171496  0.50211996  0.50212049
Direct configuration=    43
   0.47296521  0.46791876  0.50914268
   0.47263809  0.51268856  0.46941401
   0.47136059  0.52463650  0.52798206
   0.48435923  0.50210263  0.50247621
   0.56700889  0.49058005  0.48892662
   0.53169591  0.50205239  0.50204519
Direct configuration=    44
   0.47293953  0.46792799  0.50914162
   0.47261267  0.51268633  0.46942311
   0.47134703  0.52466053  0.52800950
   0.48434145  0.50211138  0.50248631
   0.56711077  0.49062692  0.48897754
   0.53167644  0.50196580  0.50194865
Direct configuration=    45
   0.47290516  0.46794044  0.50914134
   0.47257864  0.51268443  0.46943556
   0.47133397  0.52468936  0.52804243
   0.48432354  0.50211858  0.50249478
   0.56722354  0.49069060  0.48904685
   0.53166300  0.50185560  0.50182573
Direct configuration=    46
   0.47285949  0.46795658  0.50914223
   0.47253343  0.51268313  0.46945191
   0.47132552  0.52472213  0.52807985
   0.48430737  0.50212241  0.50249959
   0.56734252  0.49077503  0.48913892
   0.53165946  0.50171982  0.50167414
Direct configuration=    47
   0.47279890  0.46797615  0.50914420
   0.47247348  0.51268242  0.46947195
   0.47133215  0.52475566  0.52811807
   0.48429802  0.50211922  0.50249669
   0.56746525  0.49088215  0.48925606
   0.53165994  0.50156363  0.50149958
Direct configuration=    48
   0.47272165  0.46799659  0.50914634
   0.47239709  0.51268156  0.46949315
   0.47137284  0.52478196  0.52814798
   0.48430365  0.50210407  0.50248040
   0.56759337  0.49100418  0.48938929
   0.53163905  0.50141105  0.50132927
Direct configuration=    49
   0.47272017  0.46799634  0.50914627
   0.47239563  0.51268149  0.46949293
   0.47137760  0.52478040  0.52814620
   0.48430490  0.50210280  0.50247892
   0.56759344  0.49100473  0.48938990
   0.53163590  0.50141365  0.50133220
Direct configuration=    50
   0.47271724  0.46799581  0.50914610
   0.47239274  0.51268132  0.46949247
   0.47138713  0.52477730  0.52814265
   0.48430733  0.50210024  0.50247594
   0.56759299  0.49100591  0.48939121
   0.53163020  0.50141883  0.50133803
Direct configuration=    51
   0.47271282  0.46799505  0.50914587
   0.47238837  0.51268109  0.46949181
   0.47140130  0.52477272  0.52813742
   0.48431069  0.50209644  0.50247152
   0.56759181  0.49100799  0.48939351
   0.53162263  0.50142616  0.50134627
Direct configuration=    52
   0.47270667  0.46799418  0.50914568
   0.47238228  0.51268085  0.46949107
   0.47141988  0.52476684  0.52813070
   0.48431458  0.50209153  0.50246582
   0.56759047  0.49101150  0.48939738
   0.53161372  0.50143456  0.50135573
Direct configuration=    53
   0.47269843  0.46799345  0.50914570
   0.47237410  0.51268078  0.46949054
   0.47144225  0.52476001  0.52812290
   0.48431838  0.50208583  0.50245920
   0.56759067  0.49101724  0.48940369
   0.53160375  0.50144218  0.50136432
Direct configuration=    54
   0.47268785  0.46799324  0.50914620
   0.47236358  0.51268109  0.46949060
   0.47146694  0.52475290  0.52811477
   0.48432130  0.50207987  0.50245229
   0.56759519  0.49102591  0.48941323
   0.53159271  0.50144651  0.50136925
Direct configuration=    55
   0.47267321  0.46799406  0.50914757
   0.47234902  0.51268212  0.46949180
   0.47149505  0.52474555  0.52810634
   0.48432272  0.50207365  0.50244507
   0.56760862  0.49103960  0.48942831
   0.53157893  0.50144460  0.50136722
Direct configuration=    56
   0.47265358  0.46799618  0.50915007
   0.47232947  0.51268407  0.46949443
   0.47152669  0.52473830  0.52809800
   0.48432178  0.50206709  0.50243751
   0.56763166  0.49106017  0.48945099
   0.53156433  0.50143379  0.50135528
Direct configuration=    57
   0.47262775  0.46799995  0.50915398
   0.47230375  0.51268723  0.46949886
   0.47156199  0.52473176  0.52809041
   0.48431755  0.50206001  0.50242941
   0.56766475  0.49109006  0.48948404
   0.53155171  0.50141066  0.50132955
Direct configuration=    58
   0.47259421  0.46800571  0.50915967
   0.47227032  0.51269190  0.46950546
   0.47160115  0.52472675  0.52808452
   0.48430925  0.50205194  0.50242029
   0.56770862  0.49113213  0.48953065
   0.53154392  0.50137128  0.50128563
Direct configuration=    59
   0.47255109  0.46801373  0.50916751
   0.47222732  0.51269844  0.46951448
   0.47164490  0.52472437  0.52808154
   0.48429691  0.50204191  0.50240916
   0.56776515  0.49118929  0.48959406
   0.53154206  0.50131203  0.50121943
Direct configuration=    60
   0.47249617  0.46802391  0.50917778
   0.47217253  0.51270714  0.46952588
   0.47169509  0.52472581  0.52808277
   0.48428226  0.50202822  0.50239409
   0.56783836  0.49126385  0.48967690
   0.53154298  0.50123092  0.50112870
Direct configuration=    61
   0.47242683  0.46803553  0.50919062
   0.47210333  0.51271817  0.46953901
   0.47175551  0.52473197  0.52808925
   0.48426934  0.50200842  0.50237226
   0.56793523  0.49135694  0.48978042
   0.53153711  0.50112890  0.50101451
Direct configuration=    62
   0.47234024  0.46804740  0.50920599
   0.47201690  0.51273156  0.46955275
   0.47183200  0.52474273  0.52810074
   0.48426245  0.50198054  0.50234149
   0.56806176  0.49146983  0.48990588
   0.53151394  0.50100799  0.50087914
Direct configuration=    63
   0.47223234  0.46805865  0.50922399
   0.47190928  0.51274745  0.46956651
   0.47193178  0.52475619  0.52811505
   0.48426095  0.50194559  0.50230262
   0.56821486  0.49160872  0.49006033
   0.53147801  0.50086357  0.50071740
Direct configuration=    64
   0.47209933  0.46806962  0.50924458
   0.47177676  0.51276555  0.46958094
   0.47206264  0.52476836  0.52812770
   0.48425679  0.50190684  0.50225927
   0.56837975  0.49178405  0.49025512
   0.53145184  0.50068592  0.50051816
Direct configuration=    65
   0.47193904  0.46808136  0.50926607
   0.47161719  0.51278409  0.46959690
   0.47224058  0.52477336  0.52813179
   0.48424429  0.50186276  0.50221020
   0.56854733  0.49200031  0.49049535
   0.53143857  0.50047868  0.50028533
Direct configuration=    66
   0.47175639  0.46809332  0.50928276
   0.47143529  0.51279727  0.46961319
   0.47249147  0.52476405  0.52811916
   0.48423092  0.50180112  0.50214186
   0.56872553  0.49224339  0.49076424
   0.53138725  0.50028171  0.50006423
Direct configuration=    67
   0.47155642  0.46810610  0.50929071
   0.47123588  0.51280155  0.46962925
   0.47282182  0.52474333  0.52809264
   0.48420866  0.50171026  0.50204357
   0.56887777  0.49251554  0.49106457
   0.53132609  0.50010443  0.49986445
Direct configuration=    68
   0.47134975  0.46810457  0.50928621
   0.47102971  0.51279386  0.46963172
   0.47321882  0.52471407  0.52805622
   0.48417921  0.50160124  0.50192288
   0.56895746  0.49281029  0.49138968
   0.53129144  0.49995764  0.49969817
Direct configuration=    69
   0.47135349  0.46809998  0.50928362
   0.47103332  0.51279171  0.46962694
   0.47322254  0.52471254  0.52805451
   0.48418289  0.50160110  0.50192245
   0.56895502  0.49280429  0.49138303
   0.53127913  0.49997207  0.49971432
Direct configuration=    70
   0.47136044  0.46809134  0.50927860
   0.47103998  0.51278754  0.46961791
   0.47322927  0.52470984  0.52805150
   0.48418831  0.50160103  0.50192191
   0.56894805  0.49279412  0.49137181
   0.53126030  0.49999783  0.49974310
Direct configuration=    71
   0.47136995  0.46807947  0.50927132
   0.47104903  0.51278143  0.46960540
   0.47323782  0.52470661  0.52804790
   0.48419198  0.50160141  0.50192177
   0.56893256  0.49278278  0.49135942
   0.53124500  0.50003007  0.49977899
Direct configuration=    72
   0.47138128  0.46806580  0.50926216
   0.47105974  0.51277363  0.46959083
   0.47324636  0.52470364  0.52804461
   0.48419071  0.50160225  0.50192221
   0.56890677  0.49277296  0.49134887
   0.53124145  0.50006354  0.49981609
Direct configuration=    73
   0.47139464  0.46805143  0.50925123
   0.47107228  0.51276416  0.46957522
   0.47325341  0.52470146  0.52804222
   0.48418407  0.50160303  0.50192279
   0.56887342  0.49276457  0.49134000
   0.53124844  0.50009724  0.49985327
Direct configuration=    74
   0.47139464  0.46805143  0.50925123
   0.47107228  0.51276416  0.46957522
   0.47325341  0.52470146  0.52804222
   0.48418407  0.50160303  0.50192279
   0.56887342  0.49276457  0.49134000
   0.53124844  0.50009724  0.49985327
