  22  22   0   0
  0.1227273E+04  0.3000000E-08  0.3000000E-08  0.3000000E-08  0.0000000E+00
  1.000000000000000E-004
  CAR 
 unknown system                          
      2.19886144    -28.18067708  301     -4.48424147      1.00000000
    -28.181  0.0000E+00  0.0000E+00
    -28.079  0.0000E+00  0.0000E+00
    -27.978  0.0000E+00  0.0000E+00
    -27.877  0.0000E+00  0.0000E+00
    -27.776  0.0000E+00  0.0000E+00
    -27.674  0.0000E+00  0.0000E+00
    -27.573  0.0000E+00  0.0000E+00
    -27.472  0.0000E+00  0.0000E+00
    -27.371  0.0000E+00  0.0000E+00
    -27.269  0.4568E-15  0.4626E-16
    -27.168  0.9559E-13  0.9727E-14
    -27.067  0.1213E-10  0.1238E-11
    -26.965  0.9307E-09  0.9549E-10
    -26.864  0.4322E-07  0.4473E-08
    -26.763  0.1217E-05  0.1277E-06
    -26.662  0.2081E-04  0.2235E-05
    -26.560  0.2165E-03  0.2415E-04
    -26.459  0.1372E-02  0.1631E-03
    -26.358  0.5307E-02  0.7004E-03
    -26.257  0.1254E-01  0.1971E-02
    -26.155  0.1813E-01  0.3807E-02
    -26.054  0.1607E-01  0.5434E-02
    -25.953  0.8954E-02  0.6340E-02
    -25.852  0.4520E-02  0.6798E-02
    -25.750  0.6601E-02  0.7467E-02
    -25.649  0.1351E-01  0.8834E-02
    -25.548  0.1834E-01  0.1069E-01
    -25.447  0.1531E-01  0.1224E-01
    -25.345  0.7819E-02  0.1303E-01
    -25.244  0.2441E-02  0.1328E-01
    -25.143  0.4655E-03  0.1333E-01
    -25.041  0.5411E-04  0.1333E-01
    -24.940  0.3829E-05  0.1333E-01
    -24.839  0.1646E-06  0.1333E-01
    -24.738  0.4295E-08  0.1333E-01
    -24.636  0.6786E-10  0.1333E-01
    -24.535  0.6487E-12  0.1333E-01
    -24.434  0.6373E-13  0.1333E-01
    -24.333  0.7971E-11  0.1333E-01
    -24.231  0.6401E-09  0.1333E-01
    -24.130  0.3112E-07  0.1333E-01
    -24.029  0.9169E-06  0.1333E-01
    -23.928  0.1641E-04  0.1334E-01
    -23.826  0.1785E-03  0.1335E-01
    -23.725  0.1184E-02  0.1347E-01
    -23.624  0.4788E-02  0.1396E-01
    -23.522  0.1184E-01  0.1516E-01
    -23.421  0.1789E-01  0.1697E-01
    -23.320  0.1655E-01  0.1864E-01
    -23.219  0.9375E-02  0.1959E-01
    -23.117  0.3354E-02  0.1993E-01
    -23.016  0.1518E-02  0.2009E-01
    -22.915  0.3821E-02  0.2047E-01
    -22.814  0.1022E-01  0.2151E-01
    -22.712  0.1710E-01  0.2324E-01
    -22.611  0.1751E-01  0.2501E-01
    -22.510  0.1097E-01  0.2613E-01
    -22.409  0.4204E-02  0.2655E-01
    -22.307  0.9842E-03  0.2665E-01
    -22.206  0.1406E-03  0.2667E-01
    -22.105  0.1223E-04  0.2667E-01
    -22.004  0.6469E-06  0.2667E-01
    -21.902  0.2077E-07  0.2667E-01
    -21.801  0.4043E-09  0.2667E-01
    -21.700  0.4763E-11  0.2667E-01
    -21.598  0.3390E-13  0.2667E-01
    -21.497  0.1462E-15  0.2667E-01
    -21.396  0.0000E+00  0.2667E-01
    -21.295  0.0000E+00  0.2667E-01
    -21.193  0.0000E+00  0.2667E-01
    -21.092  0.0000E+00  0.2667E-01
    -20.991  0.0000E+00  0.2667E-01
    -20.890  0.0000E+00  0.2667E-01
    -20.788  0.0000E+00  0.2667E-01
    -20.687  0.1973E-15  0.2667E-01
    -20.586  0.4479E-13  0.2667E-01
    -20.485  0.6123E-11  0.2667E-01
    -20.383  0.5060E-09  0.2667E-01
    -20.282  0.2530E-07  0.2667E-01
    -20.181  0.7671E-06  0.2667E-01
    -20.079  0.1412E-04  0.2667E-01
    -19.978  0.1580E-03  0.2668E-01
    -19.877  0.1077E-02  0.2679E-01
    -19.776  0.4482E-02  0.2725E-01
    -19.674  0.1139E-01  0.2840E-01
    -19.573  0.1771E-01  0.3019E-01
    -19.472  0.1684E-01  0.3190E-01
    -19.371  0.9801E-02  0.3289E-01
    -19.269  0.3487E-02  0.3325E-01
    -19.168  0.7578E-03  0.3332E-01
    -19.067  0.1005E-03  0.3333E-01
    -18.966  0.8116E-05  0.3333E-01
    -18.864  0.6542E-06  0.3333E-01
    -18.763  0.5592E-05  0.3333E-01
    -18.662  0.7387E-04  0.3334E-01
    -18.560  0.5954E-03  0.3340E-01
    -18.459  0.2926E-02  0.3370E-01
    -18.358  0.8784E-02  0.3459E-01
    -18.257  0.1612E-01  0.3622E-01
    -18.155  0.1810E-01  0.3805E-01
    -18.054  0.1244E-01  0.3931E-01
    -17.953  0.5351E-02  0.3985E-01
    -17.852  0.2253E-02  0.4008E-01
    -17.750  0.4192E-02  0.4051E-01
    -17.649  0.1064E-01  0.4159E-01
    -17.548  0.1733E-01  0.4334E-01
    -17.447  0.1730E-01  0.4509E-01
    -17.345  0.1056E-01  0.4616E-01
    -17.244  0.3945E-02  0.4656E-01
    -17.143  0.9001E-03  0.4665E-01
    -17.042  0.1253E-03  0.4667E-01
    -16.940  0.1062E-04  0.4667E-01
    -16.839  0.5473E-06  0.4667E-01
    -16.738  0.1712E-07  0.4667E-01
    -16.636  0.3636E-09  0.4667E-01
    -16.535  0.2627E-08  0.4667E-01
    -16.434  0.1071E-06  0.4667E-01
    -16.333  0.2651E-05  0.4667E-01
    -16.231  0.3988E-04  0.4667E-01
    -16.130  0.3651E-03  0.4671E-01
    -16.029  0.2037E-02  0.4691E-01
    -15.928  0.6941E-02  0.4762E-01
    -15.826  0.1445E-01  0.4908E-01
    -15.725  0.1841E-01  0.5095E-01
    -15.624  0.1435E-01  0.5240E-01
    -15.523  0.6843E-02  0.5309E-01
    -15.421  0.2018E-02  0.5330E-01
    -15.320  0.5995E-03  0.5336E-01
    -15.219  0.1545E-02  0.5351E-01
    -15.117  0.5663E-02  0.5409E-01
    -15.016  0.1300E-01  0.5540E-01
    -14.915  0.1825E-01  0.5725E-01
    -14.814  0.1568E-01  0.5884E-01
    -14.712  0.8241E-02  0.5967E-01
    -14.611  0.2650E-02  0.5994E-01
    -14.510  0.5566E-03  0.6000E-01
    -14.409  0.4061E-03  0.6004E-01
    -14.307  0.1953E-02  0.6024E-01
    -14.206  0.6738E-02  0.6092E-01
    -14.105  0.1424E-01  0.6236E-01
    -14.004  0.1841E-01  0.6422E-01
    -13.902  0.1456E-01  0.6570E-01
    -13.801  0.7047E-02  0.6641E-01
    -13.700  0.2086E-02  0.6662E-01
    -13.598  0.4041E-03  0.6667E-01
    -13.497  0.3142E-03  0.6670E-01
    -13.396  0.1638E-02  0.6686E-01
    -13.295  0.5987E-02  0.6747E-01
    -13.193  0.1339E-01  0.6883E-01
    -13.092  0.1833E-01  0.7068E-01
    -12.991  0.1534E-01  0.7223E-01
    -12.890  0.7859E-02  0.7303E-01
    -12.788  0.2480E-02  0.7328E-01
    -12.687  0.6764E-03  0.7335E-01
    -12.586  0.1378E-02  0.7349E-01
    -12.485  0.5206E-02  0.7402E-01
    -12.383  0.1267E-01  0.7530E-01
    -12.282  0.1988E-01  0.7731E-01
    -12.181  0.2258E-01  0.7960E-01
    -12.080  0.2273E-01  0.8190E-01
    -11.978  0.2135E-01  0.8406E-01
    -11.877  0.1551E-01  0.8564E-01
    -11.776  0.7501E-02  0.8640E-01
    -11.674  0.2558E-02  0.8665E-01
    -11.573  0.2263E-02  0.8688E-01
    -11.472  0.6915E-02  0.8758E-01
    -11.371  0.1644E-01  0.8925E-01
    -11.269  0.2657E-01  0.9194E-01
    -11.168  0.3063E-01  0.9504E-01
    -11.067  0.2606E-01  0.9768E-01
    -10.966  0.1731E-01  0.9943E-01
    -10.864  0.1297E-01  0.1007E+00
    -10.763  0.1593E-01  0.1024E+00
    -10.662  0.1876E-01  0.1043E+00
    -10.561  0.1525E-01  0.1058E+00
    -10.459  0.1075E-01  0.1069E+00
    -10.358  0.1404E-01  0.1083E+00
    -10.257  0.2541E-01  0.1109E+00
    -10.155  0.3661E-01  0.1146E+00
    -10.054  0.4027E-01  0.1187E+00
     -9.953  0.3563E-01  0.1223E+00
     -9.852  0.2565E-01  0.1249E+00
     -9.750  0.1646E-01  0.1265E+00
     -9.649  0.1601E-01  0.1282E+00
     -9.548  0.2502E-01  0.1307E+00
     -9.447  0.3422E-01  0.1342E+00
     -9.345  0.3632E-01  0.1378E+00
     -9.244  0.3614E-01  0.1415E+00
     -9.143  0.3980E-01  0.1455E+00
     -9.042  0.4201E-01  0.1498E+00
     -8.940  0.3767E-01  0.1536E+00
     -8.839  0.3090E-01  0.1567E+00
     -8.738  0.2557E-01  0.1593E+00
     -8.637  0.2306E-01  0.1617E+00
     -8.535  0.2161E-01  0.1638E+00
     -8.434  0.1635E-01  0.1655E+00
     -8.333  0.8300E-02  0.1663E+00
     -8.231  0.2639E-02  0.1666E+00
     -8.130  0.5158E-03  0.1667E+00
     -8.029  0.6155E-04  0.1667E+00
     -7.928  0.4473E-05  0.1667E+00
     -7.826  0.1976E-06  0.1667E+00
     -7.725  0.5300E-08  0.1667E+00
     -7.624  0.5399E-09  0.1667E+00
     -7.523  0.2300E-07  0.1667E+00
     -7.421  0.7063E-06  0.1667E+00
     -7.320  0.1317E-04  0.1667E+00
     -7.219  0.1493E-03  0.1667E+00
     -7.118  0.1031E-02  0.1668E+00
     -7.016  0.4346E-02  0.1672E+00
     -6.915  0.1119E-01  0.1684E+00
     -6.814  0.1762E-01  0.1701E+00
     -6.712  0.1698E-01  0.1719E+00
     -6.611  0.1009E-01  0.1729E+00
     -6.510  0.4307E-02  0.1733E+00
     -6.409  0.4098E-02  0.1737E+00
     -6.307  0.9635E-02  0.1747E+00
     -6.206  0.1711E-01  0.1764E+00
     -6.105  0.2033E-01  0.1785E+00
     -6.004  0.1962E-01  0.1805E+00
     -5.902  0.2017E-01  0.1825E+00
     -5.801  0.2016E-01  0.1846E+00
     -5.700  0.1677E-01  0.1863E+00
     -5.599  0.1533E-01  0.1878E+00
     -5.497  0.1817E-01  0.1897E+00
     -5.396  0.1817E-01  0.1915E+00
     -5.295  0.1187E-01  0.1927E+00
     -5.193  0.4796E-02  0.1932E+00
     -5.092  0.1186E-02  0.1933E+00
     -4.991  0.1789E-03  0.1933E+00
     -4.890  0.1645E-04  0.1933E+00
     -4.788  0.9201E-06  0.1933E+00
     -4.687  0.3124E-07  0.1933E+00
     -4.586  0.6431E-09  0.1933E+00
     -4.485  0.8012E-11  0.1933E+00
     -4.383  0.6033E-13  0.1933E+00
     -4.282  0.2777E-15  0.1933E+00
     -4.181  0.0000E+00  0.1933E+00
     -4.080  0.0000E+00  0.1933E+00
     -3.978  0.0000E+00  0.1933E+00
     -3.877  0.0000E+00  0.1933E+00
     -3.776  0.0000E+00  0.1933E+00
     -3.675  0.0000E+00  0.1933E+00
     -3.573  0.0000E+00  0.1933E+00
     -3.472  0.0000E+00  0.1933E+00
     -3.371  0.0000E+00  0.1933E+00
     -3.269  0.0000E+00  0.1933E+00
     -3.168  0.0000E+00  0.1933E+00
     -3.067  0.0000E+00  0.1933E+00
     -2.966  0.0000E+00  0.1933E+00
     -2.864  0.0000E+00  0.1933E+00
     -2.763  0.0000E+00  0.1933E+00
     -2.662  0.0000E+00  0.1933E+00
     -2.561  0.0000E+00  0.1933E+00
     -2.459  0.0000E+00  0.1933E+00
     -2.358  0.0000E+00  0.1933E+00
     -2.257  0.3655E-16  0.1933E+00
     -2.156  0.9218E-14  0.1933E+00
     -2.054  0.1468E-11  0.1933E+00
     -1.953  0.1411E-09  0.1933E+00
     -1.852  0.8209E-08  0.1933E+00
     -1.750  0.2893E-06  0.1933E+00
     -1.649  0.6190E-05  0.1933E+00
     -1.548  0.8056E-04  0.1933E+00
     -1.447  0.6399E-03  0.1934E+00
     -1.345  0.3121E-02  0.1937E+00
     -1.244  0.9482E-02  0.1947E+00
     -1.143  0.1860E-01  0.1966E+00
     -1.042  0.2547E-01  0.1991E+00
     -0.940  0.2714E-01  0.2019E+00
     -0.839  0.2360E-01  0.2043E+00
     -0.738  0.1644E-01  0.2059E+00
     -0.637  0.1225E-01  0.2072E+00
     -0.535  0.1732E-01  0.2089E+00
     -0.434  0.2984E-01  0.2120E+00
     -0.333  0.4329E-01  0.2163E+00
     -0.232  0.5359E-01  0.2218E+00
     -0.130  0.6215E-01  0.2281E+00
     -0.029  0.7707E-01  0.2359E+00
      0.072  0.1007E+00  0.2461E+00
      0.174  0.1121E+00  0.2574E+00
      0.275  0.8949E-01  0.2665E+00
      0.376  0.4748E-01  0.2713E+00
      0.477  0.1621E-01  0.2729E+00
      0.579  0.3511E-02  0.2733E+00
      0.680  0.4775E-03  0.2733E+00
      0.781  0.4049E-04  0.2733E+00
      0.882  0.2128E-05  0.2733E+00
      0.984  0.6892E-07  0.2733E+00
      1.085  0.1370E-08  0.2733E+00
      1.186  0.1664E-10  0.2733E+00
      1.287  0.1231E-12  0.2733E+00
      1.389  0.5518E-15  0.2733E+00
      1.490  0.0000E+00  0.2733E+00
      1.591  0.0000E+00  0.2733E+00
      1.693  0.0000E+00  0.2733E+00
      1.794  0.0000E+00  0.2733E+00
      1.895  0.0000E+00  0.2733E+00
      1.996  0.0000E+00  0.2733E+00
      2.098  0.0000E+00  0.2733E+00
      2.199  0.0000E+00  0.2733E+00
