   22   22  300    1
  0.1227273E+04  0.3000000E-08  0.3000000E-08  0.3000000E-08  0.0000000E+00
  1.000000000000000E-004
  CAR 
 unknown system                          
     58      4     41
 
  0.2500000E+00  0.2500000E+00  0.2500000E+00  0.2500000E+00
    1      -26.180674   1.000000
    2      -25.584967   1.000000
    3      -23.437299   1.000000
    4      -22.707455   1.000000
    5      -19.583483   1.000000
    6      -18.232830   1.000000
    7      -17.548217   1.000000
    8      -15.776441   1.000000
    9      -14.946232   1.000000
   10      -14.051882   1.000000
   11      -13.128801   1.000000
   12      -12.304979   1.000000
   13      -12.021522   1.000000
   14      -11.311877   1.000000
   15      -11.136076   1.000000
   16      -10.711673   1.000000
   17      -10.243737   1.000000
   18      -10.113563   1.000000
   19       -9.948914   1.000000
   20       -9.531023   1.000000
   21       -9.402508   1.000000
   22       -9.151445   1.000000
   23       -9.077284   1.000000
   24       -8.854020   1.000000
   25       -8.566960   1.000000
   26       -6.821446   1.000000
   27       -6.191484   1.000000
   28       -5.866165   1.000000
   29       -5.481086   1.000000
   30       -1.122721   0.000000
   31       -0.898060   0.000000
   32       -0.456393   0.000000
   33       -0.298125   0.000000
   34       -0.210020   0.000000
   35       -0.086901   0.000000
   36        0.038465   0.000000
   37        0.123049   0.000000
   38        0.127172   0.000000
   39        0.133406   0.000000
   40        0.175491   0.000000
   41        0.193711   0.000000
 
 -0.2500000E+00  0.2500000E+00  0.2500000E+00  0.2500000E+00
    1      -26.180675   1.000000
    2      -25.584963   1.000000
    3      -23.437302   1.000000
    4      -22.707451   1.000000
    5      -19.583484   1.000000
    6      -18.232827   1.000000
    7      -17.548216   1.000000
    8      -15.776441   1.000000
    9      -14.946241   1.000000
   10      -14.051881   1.000000
   11      -13.128799   1.000000
   12      -12.304973   1.000000
   13      -12.021517   1.000000
   14      -11.311875   1.000000
   15      -11.136077   1.000000
   16      -10.711673   1.000000
   17      -10.243741   1.000000
   18      -10.113559   1.000000
   19       -9.948916   1.000000
   20       -9.531015   1.000000
   21       -9.402512   1.000000
   22       -9.151435   1.000000
   23       -9.077287   1.000000
   24       -8.854011   1.000000
   25       -8.566959   1.000000
   26       -6.821444   1.000000
   27       -6.191496   1.000000
   28       -5.866150   1.000000
   29       -5.481086   1.000000
   30       -1.122729   0.000000
   31       -0.898065   0.000000
   32       -0.456373   0.000000
   33       -0.298115   0.000000
   34       -0.210037   0.000000
   35       -0.087294   0.000000
   36        0.043998   0.000000
   37        0.108253   0.000000
   38        0.121462   0.000000
   39        0.141922   0.000000
   40        0.184423   0.000000
   41        0.190162   0.000000
 
  0.2500000E+00 -0.2500000E+00  0.2500000E+00  0.2500000E+00
    1      -26.180677   1.000000
    2      -25.584965   1.000000
    3      -23.437299   1.000000
    4      -22.707455   1.000000
    5      -19.583483   1.000000
    6      -18.232830   1.000000
    7      -17.548216   1.000000
    8      -15.776440   1.000000
    9      -14.946238   1.000000
   10      -14.051880   1.000000
   11      -13.128799   1.000000
   12      -12.304973   1.000000
   13      -12.021517   1.000000
   14      -11.311874   1.000000
   15      -11.136074   1.000000
   16      -10.711675   1.000000
   17      -10.243743   1.000000
   18      -10.113556   1.000000
   19       -9.948919   1.000000
   20       -9.531018   1.000000
   21       -9.402504   1.000000
   22       -9.151445   1.000000
   23       -9.077276   1.000000
   24       -8.854022   1.000000
   25       -8.566971   1.000000
   26       -6.821435   1.000000
   27       -6.191486   1.000000
   28       -5.866168   1.000000
   29       -5.481093   1.000000
   30       -1.122725   0.000000
   31       -0.898067   0.000000
   32       -0.456366   0.000000
   33       -0.298115   0.000000
   34       -0.210096   0.000000
   35       -0.086840   0.000000
   36        0.042744   0.000000
   37        0.103827   0.000000
   38        0.129949   0.000000
   39        0.138444   0.000000
   40        0.182929   0.000000
   41        0.195361   0.000000
 
 -0.2500000E+00 -0.2500000E+00  0.2500000E+00  0.2500000E+00
    1      -26.180677   1.000000
    2      -25.584965   1.000000
    3      -23.437297   1.000000
    4      -22.707455   1.000000
    5      -19.583482   1.000000
    6      -18.232830   1.000000
    7      -17.548221   1.000000
    8      -15.776438   1.000000
    9      -14.946232   1.000000
   10      -14.051874   1.000000
   11      -13.128805   1.000000
   12      -12.304972   1.000000
   13      -12.021516   1.000000
   14      -11.311866   1.000000
   15      -11.136070   1.000000
   16      -10.711669   1.000000
   17      -10.243741   1.000000
   18      -10.113568   1.000000
   19       -9.948920   1.000000
   20       -9.531019   1.000000
   21       -9.402512   1.000000
   22       -9.151434   1.000000
   23       -9.077274   1.000000
   24       -8.854021   1.000000
   25       -8.566964   1.000000
   26       -6.821436   1.000000
   27       -6.191488   1.000000
   28       -5.866157   1.000000
   29       -5.481108   1.000000
   30       -1.122720   0.000000
   31       -0.898068   0.000000
   32       -0.456365   0.000000
   33       -0.298121   0.000000
   34       -0.210045   0.000000
   35       -0.087260   0.000000
   36        0.044833   0.000000
   37        0.106157   0.000000
   38        0.130051   0.000000
   39        0.132891   0.000000
   40        0.178993   0.000000
   41        0.198861   0.000000
