       N       E                     dE             d eps       ncg     rms          rms(c)
DAV:   1     0.610969408959E+03    0.61097E+03   -0.79538E+03   392   0.485E+02
DAV:   2     0.277317338470E+03   -0.33365E+03   -0.32269E+03   571   0.920E+01
DAV:   3    -0.434350465807E+02   -0.32075E+03   -0.31204E+03   496   0.110E+02
DAV:   4    -0.136309455170E+03   -0.92874E+02   -0.92526E+02   396   0.819E+01
DAV:   5    -0.141894199056E+03   -0.55847E+01   -0.55660E+01   432   0.235E+01    0.196E+01
DAV:   6    -0.131792514780E+03    0.10102E+02   -0.23963E+01   423   0.201E+01    0.100E+01
DAV:   7    -0.130028804095E+03    0.17637E+01   -0.46070E+00   416   0.833E+00    0.515E+00
DAV:   8    -0.129541069168E+03    0.48773E+00   -0.86316E-01   440   0.403E+00    0.155E+00
DAV:   9    -0.129471872341E+03    0.69197E-01   -0.10106E-01   464   0.153E+00    0.566E-01
DAV:  10    -0.129461169520E+03    0.10703E-01   -0.24524E-02   448   0.809E-01    0.259E-01
DAV:  11    -0.129455725829E+03    0.54437E-02   -0.78918E-03   448   0.437E-01    0.159E-01
DAV:  12    -0.129456694008E+03   -0.96818E-03   -0.56436E-03   382   0.346E-01    0.966E-02
DAV:  13    -0.129463076544E+03   -0.63825E-02   -0.46660E-03   432   0.315E-01    0.564E-02
DAV:  14    -0.129469373640E+03   -0.62971E-02   -0.16117E-03   431   0.185E-01    0.375E-02
DAV:  15    -0.129476617152E+03   -0.72435E-02   -0.66134E-04   399   0.925E-02    0.231E-02
DAV:  16    -0.129482573342E+03   -0.59562E-02   -0.47188E-04   330   0.693E-02    0.135E-02
DAV:  17    -0.129485664577E+03   -0.30912E-02   -0.17857E-04   368   0.444E-02    0.808E-03
DAV:  18    -0.129487081330E+03   -0.14168E-02   -0.95829E-05   334   0.276E-02    0.542E-03
DAV:  19    -0.129487968623E+03   -0.88729E-03   -0.46296E-05   320   0.208E-02    0.331E-03
DAV:  20    -0.129488449470E+03   -0.48085E-03   -0.24095E-05   344   0.151E-02    0.231E-03
DAV:  21    -0.129488639622E+03   -0.19015E-03   -0.82098E-06   336   0.840E-03    0.116E-03
DAV:  22    -0.129488786108E+03   -0.14649E-03   -0.45251E-06   286   0.685E-03    0.109E-03
DAV:  23    -0.129488823041E+03   -0.36933E-04   -0.11120E-06   360   0.361E-03
   1 F= -.12948882E+03 E0= -.12948882E+03  d E =-.129489E+03
       N       E                     dE             d eps       ncg     rms          rms(c)
DAV:   1    -0.129490375152E+03   -0.15890E-02   -0.57912E-02   331   0.130E+00    0.552E-02
DAV:   2    -0.129490480126E+03   -0.10497E-03   -0.14981E-03   464   0.187E-01    0.396E-02
DAV:   3    -0.129490465612E+03    0.14514E-04   -0.44968E-05   367   0.384E-02    0.248E-02
DAV:   4    -0.129490474180E+03   -0.85673E-05   -0.60169E-05   303   0.423E-02    0.569E-03
DAV:   5    -0.129490476630E+03   -0.24502E-05   -0.14056E-05   272   0.201E-02    0.365E-03
DAV:   6    -0.129490478080E+03   -0.14497E-05   -0.16994E-06   272   0.719E-03
   2 F= -.12949048E+03 E0= -.12949048E+03  d E =-.165504E-02
       N       E                     dE             d eps       ncg     rms          rms(c)
DAV:   1    -0.129491753028E+03   -0.12764E-02   -0.12624E-01   332   0.190E+00    0.797E-02
DAV:   2    -0.129491940256E+03   -0.18723E-03   -0.28469E-03   429   0.257E-01    0.550E-02
DAV:   3    -0.129491910643E+03    0.29613E-04   -0.94672E-05   344   0.549E-02    0.332E-02
DAV:   4    -0.129491928519E+03   -0.17876E-04   -0.10885E-04   233   0.555E-02    0.859E-03
DAV:   5    -0.129491930352E+03   -0.18327E-05   -0.24754E-05   272   0.270E-02    0.514E-03
DAV:   6    -0.129491931562E+03   -0.12103E-05   -0.29894E-06   202   0.942E-03
   3 F= -.12949193E+03 E0= -.12949193E+03  d E =-.145348E-02
       N       E                     dE             d eps       ncg     rms          rms(c)
DAV:   1    -0.129493405468E+03   -0.14751E-02   -0.16325E-01   329   0.213E+00    0.914E-02
DAV:   2    -0.129493635952E+03   -0.23048E-03   -0.34839E-03   428   0.274E-01    0.608E-02
DAV:   3    -0.129493609675E+03    0.26276E-04   -0.11305E-04   358   0.594E-02    0.347E-02
DAV:   4    -0.129493633809E+03   -0.24134E-04   -0.87249E-05   313   0.488E-02    0.820E-03
DAV:   5    -0.129493636338E+03   -0.25290E-05   -0.16011E-05   272   0.213E-02    0.489E-03
DAV:   6    -0.129493637732E+03   -0.13938E-05   -0.25086E-06   232   0.873E-03
   4 F= -.12949364E+03 E0= -.12949364E+03  d E =-.170617E-02
       N       E                     dE             d eps       ncg     rms          rms(c)
DAV:   1    -0.129495121577E+03   -0.14852E-02   -0.21429E-01   336   0.244E+00    0.104E-01
DAV:   2    -0.129495441923E+03   -0.32035E-03   -0.45428E-03   425   0.316E-01    0.705E-02
DAV:   3    -0.129495410413E+03    0.31510E-04   -0.11481E-04   351   0.617E-02    0.402E-02
DAV:   4    -0.129495434520E+03   -0.24107E-04   -0.90700E-05   269   0.510E-02    0.681E-03
DAV:   5    -0.129495437447E+03   -0.29269E-05   -0.17909E-05   272   0.221E-02    0.459E-03
DAV:   6    -0.129495439044E+03   -0.15971E-05   -0.24344E-06   262   0.830E-03
   5 F= -.12949544E+03 E0= -.12949544E+03  d E =-.180131E-02
       N       E                     dE             d eps       ncg     rms          rms(c)
DAV:   1    -0.129496952667E+03   -0.15152E-02   -0.25960E-01   329   0.265E+00    0.110E-01
DAV:   2    -0.129497341724E+03   -0.38906E-03   -0.52509E-03   428   0.332E-01    0.762E-02
DAV:   3    -0.129497313898E+03    0.27826E-04   -0.11184E-04   340   0.619E-02    0.423E-02
DAV:   4    -0.129497342059E+03   -0.28161E-04   -0.10564E-04   274   0.536E-02    0.689E-03
DAV:   5    -0.129497344329E+03   -0.22700E-05   -0.19601E-05   272   0.227E-02    0.471E-03
DAV:   6    -0.129497345941E+03   -0.16124E-05   -0.26469E-06   274   0.831E-03
   6 F= -.12949735E+03 E0= -.12949735E+03  d E =-.190690E-02
       N       E                     dE             d eps       ncg     rms          rms(c)
DAV:   1    -0.129499249582E+03   -0.19053E-02   -0.31103E-01   329   0.288E+00    0.119E-01
DAV:   2    -0.129499700006E+03   -0.45042E-03   -0.60596E-03   396   0.356E-01    0.798E-02
DAV:   3    -0.129499684916E+03    0.15090E-04   -0.11478E-04   333   0.621E-02    0.425E-02
DAV:   4    -0.129499718524E+03   -0.33608E-04   -0.10261E-04   249   0.531E-02    0.721E-03
DAV:   5    -0.129499721206E+03   -0.26819E-05   -0.19670E-05   272   0.231E-02    0.464E-03
DAV:   6    -0.129499723185E+03   -0.19794E-05   -0.27771E-06   284   0.843E-03
   7 F= -.12949972E+03 E0= -.12949972E+03  d E =-.237724E-02
       N       E                     dE             d eps       ncg     rms          rms(c)
DAV:   1    -0.129501903369E+03   -0.21822E-02   -0.46307E-01   328   0.350E+00    0.146E-01
DAV:   2    -0.129502596884E+03   -0.69351E-03   -0.93322E-03   396   0.443E-01    0.969E-02
DAV:   3    -0.129502578432E+03    0.18452E-04   -0.17435E-04   342   0.771E-02    0.514E-02
DAV:   4    -0.129502630217E+03   -0.51785E-04   -0.17240E-04   354   0.672E-02    0.101E-02
DAV:   5    -0.129502632297E+03   -0.20804E-05   -0.27142E-05   272   0.269E-02    0.645E-03
DAV:   6    -0.129502635179E+03   -0.28817E-05   -0.61817E-06   284   0.123E-02
   8 F= -.12950264E+03 E0= -.12950264E+03  d E =-.291199E-02
       N       E                     dE             d eps       ncg     rms          rms(c)
DAV:   1    -0.129504479387E+03   -0.18471E-02   -0.68115E-01   328   0.425E+00    0.175E-01
DAV:   2    -0.129505523252E+03   -0.10439E-02   -0.14172E-02   396   0.543E-01    0.115E-01
DAV:   3    -0.129505500627E+03    0.22625E-04   -0.29726E-04   397   0.966E-02    0.623E-02
DAV:   4    -0.129505585967E+03   -0.85340E-04   -0.21882E-04   364   0.784E-02    0.125E-02
DAV:   5    -0.129505589705E+03   -0.37386E-05   -0.40324E-05   304   0.332E-02    0.674E-03
DAV:   6    -0.129505593388E+03   -0.36830E-05   -0.60691E-06   236   0.123E-02
   9 F= -.12950559E+03 E0= -.12950559E+03  d E =-.295821E-02
       N       E                     dE             d eps       ncg     rms          rms(c)
DAV:   1    -0.129507288188E+03   -0.16985E-02   -0.90633E-01   328   0.488E+00    0.200E-01
DAV:   2    -0.129508845691E+03   -0.15575E-02   -0.20149E-02   396   0.632E-01    0.130E-01
DAV:   3    -0.129508814174E+03    0.31516E-04   -0.36466E-04   396   0.106E-01    0.732E-02
DAV:   4    -0.129508931366E+03   -0.11719E-03   -0.25038E-04   365   0.856E-02    0.123E-02
DAV:   5    -0.129508938641E+03   -0.72753E-05   -0.44306E-05   304   0.335E-02    0.825E-03
DAV:   6    -0.129508942705E+03   -0.40634E-05   -0.51458E-06   270   0.115E-02
  10 F= -.12950894E+03 E0= -.12950894E+03  d E =-.334932E-02
       N       E                     dE             d eps       ncg     rms          rms(c)
DAV:   1    -0.129510002724E+03   -0.10641E-02   -0.13881E+00   328   0.604E+00    0.247E-01
DAV:   2    -0.129512561653E+03   -0.25589E-02   -0.33056E-02   396   0.812E-01    0.160E-01
DAV:   3    -0.129512447384E+03    0.11427E-03   -0.63746E-04   428   0.140E-01    0.928E-02
DAV:   4    -0.129512640163E+03   -0.19278E-03   -0.43394E-04   438   0.116E-01    0.177E-02
DAV:   5    -0.129512652326E+03   -0.12163E-04   -0.77176E-05   279   0.456E-02    0.107E-02
DAV:   6    -0.129512657214E+03   -0.48883E-05   -0.85422E-06   325   0.155E-02
  11 F= -.12951266E+03 E0= -.12951266E+03  d E =-.371451E-02
       N       E                     dE             d eps       ncg     rms          rms(c)
DAV:   1    -0.129511845422E+03    0.80690E-03   -0.19584E+00   328   0.724E+00    0.292E-01
DAV:   2    -0.129515539858E+03   -0.36944E-02   -0.47597E-02   361   0.983E-01    0.207E-01
DAV:   3    -0.129515253459E+03    0.28640E-03   -0.11170E-03   464   0.185E-01    0.125E-01
DAV:   4    -0.129515465583E+03   -0.21212E-03   -0.70063E-04   410   0.146E-01    0.233E-02
DAV:   5    -0.129515495469E+03   -0.29886E-04   -0.12532E-04   400   0.545E-02    0.150E-02
DAV:   6    -0.129515502858E+03   -0.73890E-05   -0.88524E-06   288   0.159E-02
  12 F= -.12951550E+03 E0= -.12951550E+03  d E =-.284564E-02
       N       E                     dE             d eps       ncg     rms          rms(c)
DAV:   1    -0.129503988385E+03    0.11507E-01   -0.35356E+00   328   0.975E+00    0.457E-01
DAV:   2    -0.129512361441E+03   -0.83731E-02   -0.11231E-01   360   0.149E+00    0.284E-01
DAV:   3    -0.129511614873E+03    0.74657E-03   -0.23426E-03   446   0.271E-01    0.168E-01
DAV:   4    -0.129511664070E+03   -0.49197E-04   -0.17172E-03   411   0.221E-01    0.378E-02
DAV:   5    -0.129511702384E+03   -0.38315E-04   -0.32896E-04   432   0.905E-02    0.231E-02
DAV:   6    -0.129511718355E+03   -0.15970E-04   -0.23043E-05   334   0.256E-02
  13 F= -.12951172E+03 E0= -.12951172E+03  d E =0.378450E-02
       N       E                     dE             d eps       ncg     rms          rms(c)
DAV:   1    -0.129518595376E+03   -0.68930E-02   -0.58775E-01   328   0.390E+00    0.268E-01
DAV:   2    -0.129520473964E+03   -0.18786E-02   -0.26409E-02   394   0.716E-01    0.148E-01
DAV:   3    -0.129520232130E+03    0.24183E-03   -0.76411E-04   461   0.151E-01    0.842E-02
DAV:   4    -0.129520122403E+03    0.10973E-03   -0.45919E-04   392   0.108E-01    0.220E-02
DAV:   5    -0.129520116031E+03    0.63719E-05   -0.88531E-05   381   0.462E-02    0.107E-02
DAV:   6    -0.129520117315E+03   -0.12844E-05   -0.84293E-06   368   0.153E-02
  14 F= -.12952012E+03 E0= -.12952012E+03  d E =-.839896E-02
       N       E                     dE             d eps       ncg     rms          rms(c)
DAV:   1    -0.129520185926E+03   -0.69895E-04   -0.35851E-04   344   0.100E-01    0.509E-03
DAV:   2    -0.129520191922E+03   -0.59957E-05   -0.10385E-05   368   0.170E-02    0.326E-03
DAV:   3    -0.129520197213E+03   -0.52906E-05   -0.13076E-06   222   0.626E-03    0.207E-03
DAV:   4    -0.129520206613E+03   -0.94007E-05   -0.93268E-07   292   0.471E-03    0.800E-04
DAV:   5    -0.129520212464E+03   -0.58504E-05   -0.32996E-07   304   0.275E-03    0.564E-04
DAV:   6    -0.129520217740E+03   -0.52761E-05   -0.20853E-07   266   0.191E-03
  15 F= -.12952022E+03 E0= -.12952022E+03  d E =-.100424E-03
       N       E                     dE             d eps       ncg     rms          rms(c)
DAV:   1    -0.129520331841E+03   -0.11938E-03   -0.12327E-03   336   0.187E-01    0.845E-03
DAV:   2    -0.129520335225E+03   -0.33838E-05   -0.30283E-05   272   0.281E-02    0.541E-03
DAV:   3    -0.129520336683E+03   -0.14580E-05   -0.43971E-06   270   0.102E-02    0.348E-03
DAV:   4    -0.129520338935E+03   -0.22515E-05   -0.13940E-06   237   0.637E-03    0.121E-03
DAV:   5    -0.129520339854E+03   -0.91941E-06   -0.30677E-07   272   0.308E-03    0.675E-04
DAV:   6    -0.129520340542E+03   -0.68852E-06   -0.68810E-08   202   0.156E-03
  16 F= -.12952034E+03 E0= -.12952034E+03  d E =-.122803E-03
       N       E                     dE             d eps       ncg     rms          rms(c)
DAV:   1    -0.129520454927E+03   -0.11507E-03   -0.24186E-03   365   0.261E-01    0.123E-02
DAV:   2    -0.129520457867E+03   -0.29402E-05   -0.54163E-05   227   0.376E-02    0.775E-03
DAV:   3    -0.129520458330E+03   -0.46301E-06   -0.70081E-06   272   0.137E-02    0.476E-03
DAV:   4    -0.129520459054E+03   -0.72377E-06   -0.29701E-06   264   0.828E-03    0.146E-03
DAV:   5    -0.129520459226E+03   -0.17249E-06   -0.45181E-07   264   0.382E-03    0.749E-04
DAV:   6    -0.129520459416E+03   -0.18923E-06   -0.54905E-08   218   0.168E-03
  17 F= -.12952046E+03 E0= -.12952046E+03  d E =-.118873E-03
       N       E                     dE             d eps       ncg     rms          rms(c)
DAV:   1    -0.129520557797E+03   -0.98571E-04   -0.41619E-03   360   0.338E-01    0.161E-02
DAV:   2    -0.129520561447E+03   -0.36493E-05   -0.81023E-05   238   0.459E-02    0.988E-03
DAV:   3    -0.129520561979E+03   -0.53282E-06   -0.10710E-05   272   0.169E-02    0.582E-03
DAV:   4    -0.129520562641E+03   -0.66178E-06   -0.37331E-06   204   0.980E-03    0.163E-03
DAV:   5    -0.129520562715E+03   -0.73490E-07   -0.89023E-07   272   0.486E-03    0.825E-04
DAV:   6    -0.129520562842E+03   -0.12772E-06   -0.20585E-07   202   0.218E-03
  18 F= -.12952056E+03 E0= -.12952056E+03  d E =-.103427E-03
       N       E                     dE             d eps       ncg     rms          rms(c)
DAV:   1    -0.129520647923E+03   -0.85208E-04   -0.65153E-03   368   0.415E-01    0.197E-02
DAV:   2    -0.129520653572E+03   -0.56494E-05   -0.11608E-04   252   0.534E-02    0.121E-02
DAV:   3    -0.129520654276E+03   -0.70435E-06   -0.11553E-05   220   0.165E-02    0.686E-03
DAV:   4    -0.129520655481E+03   -0.12049E-05   -0.50549E-06   253   0.109E-02    0.185E-03
DAV:   5    -0.129520655581E+03   -0.99946E-07   -0.13189E-06   194   0.565E-03    0.936E-04
DAV:   6    -0.129520655727E+03   -0.14541E-06   -0.30614E-07   173   0.232E-03
  19 F= -.12952066E+03 E0= -.12952066E+03  d E =-.928843E-04
       N       E                     dE             d eps       ncg     rms          rms(c)
DAV:   1    -0.129520733838E+03   -0.78256E-04   -0.93865E-03   341   0.493E-01    0.231E-02
DAV:   2    -0.129520742077E+03   -0.82391E-05   -0.15609E-04   268   0.612E-02    0.142E-02
DAV:   3    -0.129520743282E+03   -0.12049E-05   -0.15267E-05   212   0.188E-02    0.755E-03
DAV:   4    -0.129520744863E+03   -0.15816E-05   -0.61273E-06   236   0.118E-02    0.189E-03
DAV:   5    -0.129520745031E+03   -0.16756E-06   -0.16619E-06   200   0.612E-03    0.957E-04
DAV:   6    -0.129520745180E+03   -0.14918E-06   -0.40676E-07   164   0.253E-03
  20 F= -.12952075E+03 E0= -.12952075E+03  d E =-.894535E-04
       N       E                     dE             d eps       ncg     rms          rms(c)
DAV:   1    -0.129520822651E+03   -0.77620E-04   -0.15597E-02   334   0.633E-01    0.292E-02
DAV:   2    -0.129520839573E+03   -0.16921E-04   -0.28011E-04   364   0.774E-02    0.193E-02
DAV:   3    -0.129520838675E+03    0.89768E-06   -0.11479E-05   227   0.193E-02    0.104E-02
DAV:   4    -0.129520841104E+03   -0.24287E-05   -0.90670E-06   262   0.147E-02    0.269E-03
DAV:   5    -0.129520841158E+03   -0.54466E-07   -0.19031E-06   245   0.753E-03    0.133E-03
DAV:   6    -0.129520841299E+03   -0.14059E-06   -0.26202E-07   200   0.277E-03
  21 F= -.12952084E+03 E0= -.12952084E+03  d E =-.961184E-04
       N       E                     dE             d eps       ncg     rms          rms(c)
DAV:   1    -0.129520908363E+03   -0.67205E-04   -0.24124E-02   332   0.787E-01    0.358E-02
DAV:   2    -0.129520934776E+03   -0.26412E-04   -0.42173E-04   396   0.947E-02    0.242E-02
DAV:   3    -0.129520933050E+03    0.17258E-05   -0.12798E-05   219   0.212E-02    0.128E-02
DAV:   4    -0.129520936547E+03   -0.34971E-05   -0.12825E-05   261   0.174E-02    0.307E-03
DAV:   5    -0.129520936648E+03   -0.10054E-06   -0.26975E-06   238   0.883E-03    0.163E-03
DAV:   6    -0.129520936832E+03   -0.18450E-06   -0.38520E-07   216   0.315E-03
  22 F= -.12952094E+03 E0= -.12952094E+03  d E =-.955334E-04
       N       E                     dE             d eps       ncg     rms          rms(c)
DAV:   1    -0.129521006846E+03   -0.70199E-04   -0.34233E-02   334   0.935E-01    0.424E-02
DAV:   2    -0.129521042281E+03   -0.35434E-04   -0.56679E-04   396   0.110E-01    0.289E-02
DAV:   3    -0.129521040630E+03    0.16511E-05   -0.16400E-05   202   0.242E-02    0.147E-02
DAV:   4    -0.129521045426E+03   -0.47962E-05   -0.16625E-05   236   0.197E-02    0.339E-03
DAV:   5    -0.129521045590E+03   -0.16397E-06   -0.34317E-06   237   0.987E-03    0.182E-03
DAV:   6    -0.129521045832E+03   -0.24202E-06   -0.48383E-07   200   0.345E-03
  23 F= -.12952105E+03 E0= -.12952105E+03  d E =-.109000E-03
       N       E                     dE             d eps       ncg     rms          rms(c)
DAV:   1    -0.129521169794E+03   -0.12420E-03   -0.45384E-02   334   0.107E+00    0.491E-02
DAV:   2    -0.129521214156E+03   -0.44362E-04   -0.73249E-04   396   0.125E-01    0.336E-02
DAV:   3    -0.129521212699E+03    0.14570E-05   -0.19512E-05   204   0.269E-02    0.166E-02
DAV:   4    -0.129521218898E+03   -0.61992E-05   -0.22832E-05   317   0.221E-02    0.409E-03
DAV:   5    -0.129521218931E+03   -0.33260E-07   -0.38919E-06   272   0.106E-02    0.210E-03
DAV:   6    -0.129521219173E+03   -0.24123E-06   -0.47002E-07   204   0.364E-03
  24 F= -.12952122E+03 E0= -.12952122E+03  d E =-.173341E-03
       N       E                     dE             d eps       ncg     rms          rms(c)
DAV:   1    -0.129521435583E+03   -0.21665E-03   -0.57299E-02   332   0.120E+00    0.555E-02
DAV:   2    -0.129521489017E+03   -0.53434E-04   -0.91558E-04   395   0.139E-01    0.377E-02
DAV:   3    -0.129521487734E+03    0.12825E-05   -0.21812E-05   216   0.292E-02    0.178E-02
DAV:   4    -0.129521495223E+03   -0.74893E-05   -0.26725E-05   310   0.244E-02    0.410E-03
DAV:   5    -0.129521495392E+03   -0.16888E-06   -0.41358E-06   246   0.109E-02    0.236E-03
DAV:   6    -0.129521495704E+03   -0.31141E-06   -0.48225E-07   232   0.380E-03
  25 F= -.12952150E+03 E0= -.12952150E+03  d E =-.276531E-03
       N       E                     dE             d eps       ncg     rms          rms(c)
DAV:   1    -0.129521823814E+03   -0.32842E-03   -0.69877E-02   332   0.133E+00    0.601E-02
DAV:   2    -0.129521895159E+03   -0.71344E-04   -0.11500E-03   396   0.155E-01    0.407E-02
DAV:   3    -0.129521893078E+03    0.20805E-05   -0.25822E-05   218   0.315E-02    0.194E-02
DAV:   4    -0.129521903097E+03   -0.10019E-04   -0.31471E-05   299   0.273E-02    0.417E-03
DAV:   5    -0.129521903441E+03   -0.34427E-06   -0.48082E-06   256   0.115E-02    0.276E-03
DAV:   6    -0.129521903872E+03   -0.43086E-06   -0.69853E-07   232   0.459E-03
  26 F= -.12952190E+03 E0= -.12952190E+03  d E =-.408168E-03
       N       E                     dE             d eps       ncg     rms          rms(c)
DAV:   1    -0.129522294356E+03   -0.39092E-03   -0.90888E-02   336   0.153E+00    0.650E-02
DAV:   2    -0.129522412509E+03   -0.11815E-03   -0.17160E-03   396   0.189E-01    0.444E-02
DAV:   3    -0.129522405427E+03    0.70819E-05   -0.33286E-05   245   0.360E-02    0.240E-02
DAV:   4    -0.129522420926E+03   -0.15499E-04   -0.46641E-05   265   0.349E-02    0.496E-03
DAV:   5    -0.129522421525E+03   -0.59932E-06   -0.83001E-06   271   0.154E-02    0.324E-03
DAV:   6    -0.129522422053E+03   -0.52852E-06   -0.98274E-07   204   0.533E-03
  27 F= -.12952242E+03 E0= -.12952242E+03  d E =-.518182E-03
       N       E                     dE             d eps       ncg     rms          rms(c)
DAV:   1    -0.129522828186E+03   -0.40666E-03   -0.13010E-01   330   0.184E+00    0.719E-02
DAV:   2    -0.129523031460E+03   -0.20327E-03   -0.27635E-03   395   0.236E-01    0.490E-02
DAV:   3    -0.129523021090E+03    0.10370E-04   -0.41682E-05   236   0.401E-02    0.284E-02
DAV:   4    -0.129523044822E+03   -0.23732E-04   -0.63241E-05   299   0.424E-02    0.561E-03
DAV:   5    -0.129523046098E+03   -0.12762E-05   -0.12280E-05   237   0.188E-02    0.345E-03
DAV:   6    -0.129523046820E+03   -0.72209E-06   -0.13276E-06   262   0.605E-03
  28 F= -.12952305E+03 E0= -.12952305E+03  d E =-.624767E-03
       N       E                     dE             d eps       ncg     rms          rms(c)
DAV:   1    -0.129523441435E+03   -0.39534E-03   -0.19987E-01   328   0.225E+00    0.823E-02
DAV:   2    -0.129523786015E+03   -0.34458E-03   -0.44804E-03   364   0.294E-01    0.565E-02
DAV:   3    -0.129523776766E+03    0.92485E-05   -0.77032E-05   341   0.467E-02    0.341E-02
DAV:   4    -0.129523810271E+03   -0.33505E-04   -0.68524E-05   299   0.484E-02    0.544E-03
DAV:   5    -0.129523812782E+03   -0.25109E-05   -0.15993E-05   256   0.205E-02    0.419E-03
DAV:   6    -0.129523814175E+03   -0.13928E-05   -0.16862E-06   264   0.693E-03
  29 F= -.12952381E+03 E0= -.12952381E+03  d E =-.767355E-03
       N       E                     dE             d eps       ncg     rms          rms(c)
DAV:   1    -0.129524152523E+03   -0.33974E-03   -0.31591E-01   331   0.281E+00    0.989E-02
DAV:   2    -0.129524724736E+03   -0.57221E-03   -0.72591E-03   364   0.369E-01    0.683E-02
DAV:   3    -0.129524711462E+03    0.13274E-04   -0.11562E-04   350   0.560E-02    0.421E-02
DAV:   4    -0.129524761405E+03   -0.49943E-04   -0.10012E-04   300   0.587E-02    0.649E-03
DAV:   5    -0.129524765710E+03   -0.43050E-05   -0.24817E-05   272   0.249E-02    0.509E-03
DAV:   6    -0.129524767902E+03   -0.21927E-05   -0.27015E-06   240   0.846E-03
  30 F= -.12952477E+03 E0= -.12952477E+03  d E =-.953727E-03
       N       E                     dE             d eps       ncg     rms          rms(c)
DAV:   1    -0.129524915797E+03   -0.15009E-03   -0.46803E-01   333   0.341E+00    0.119E-01
DAV:   2    -0.129525776410E+03   -0.86061E-03   -0.10824E-02   364   0.448E-01    0.817E-02
DAV:   3    -0.129525757097E+03    0.19313E-04   -0.16185E-04   333   0.664E-02    0.502E-02
DAV:   4    -0.129525829451E+03   -0.72354E-04   -0.14640E-04   332   0.708E-02    0.785E-03
DAV:   5    -0.129525835442E+03   -0.59903E-05   -0.35522E-05   264   0.296E-02    0.605E-03
DAV:   6    -0.129525839187E+03   -0.37458E-05   -0.38450E-06   264   0.100E-02
  31 F= -.12952584E+03 E0= -.12952584E+03  d E =-.107128E-02
       N       E                     dE             d eps       ncg     rms          rms(c)
DAV:   1    -0.129525705356E+03    0.13009E-03   -0.59513E-01   328   0.387E+00    0.136E-01
DAV:   2    -0.129526801960E+03   -0.10966E-02   -0.13832E-02   364   0.510E-01    0.936E-02
DAV:   3    -0.129526775540E+03    0.26419E-04   -0.22879E-04   396   0.764E-02    0.572E-02
DAV:   4    -0.129526873276E+03   -0.97735E-04   -0.15414E-04   332   0.747E-02    0.855E-03
DAV:   5    -0.129526881883E+03   -0.86077E-05   -0.40918E-05   256   0.317E-02    0.674E-03
DAV:   6    -0.129526886418E+03   -0.45349E-05   -0.40961E-06   296   0.104E-02
  32 F= -.12952689E+03 E0= -.12952689E+03  d E =-.104723E-02
       N       E                     dE             d eps       ncg     rms          rms(c)
DAV:   1    -0.129526640247E+03    0.24164E-03   -0.62497E-01   328   0.401E+00    0.148E-01
DAV:   2    -0.129527755208E+03   -0.11150E-02   -0.14418E-02   364   0.528E-01    0.102E-01
DAV:   3    -0.129527719526E+03    0.35682E-04   -0.24963E-04   381   0.834E-02    0.621E-02
DAV:   4    -0.129527836784E+03   -0.11726E-03   -0.20069E-04   363   0.819E-02    0.102E-02
DAV:   5    -0.129527844202E+03   -0.74180E-05   -0.43580E-05   272   0.330E-02    0.731E-03
DAV:   6    -0.129527848664E+03   -0.44615E-05   -0.48675E-06   252   0.108E-02
  33 F= -.12952785E+03 E0= -.12952785E+03  d E =-.962245E-03
       N       E                     dE             d eps       ncg     rms          rms(c)
DAV:   1    -0.129527208252E+03    0.63595E-03   -0.70760E-01   328   0.432E+00    0.171E-01
DAV:   2    -0.129528440942E+03   -0.12327E-02   -0.16494E-02   372   0.577E-01    0.118E-01
DAV:   3    -0.129528375339E+03    0.65603E-04   -0.28616E-04   447   0.957E-02    0.688E-02
DAV:   4    -0.129528487693E+03   -0.11235E-03   -0.21120E-04   314   0.841E-02    0.113E-02
DAV:   5    -0.129528497639E+03   -0.99456E-05   -0.48459E-05   336   0.358E-02    0.784E-03
DAV:   6    -0.129528501437E+03   -0.37981E-05   -0.46847E-06   296   0.114E-02
  34 F= -.12952850E+03 E0= -.12952850E+03  d E =-.652774E-03
       N       E                     dE             d eps       ncg     rms          rms(c)
DAV:   1    -0.129524057374E+03    0.44403E-02   -0.10893E+00   328   0.550E+00    0.260E-01
DAV:   2    -0.129526505725E+03   -0.24484E-02   -0.34137E-02   361   0.851E-01    0.182E-01
DAV:   3    -0.129526198418E+03    0.30731E-03   -0.86685E-04   456   0.167E-01    0.111E-01
DAV:   4    -0.129526192040E+03    0.63781E-05   -0.64795E-04   387   0.135E-01    0.234E-02
DAV:   5    -0.129526201376E+03   -0.93361E-05   -0.11496E-04   400   0.534E-02    0.135E-02
DAV:   6    -0.129526208482E+03   -0.71057E-05   -0.10773E-05   256   0.172E-02
  35 F= -.12952621E+03 E0= -.12952621E+03  d E =0.229296E-02
       N       E                     dE             d eps       ncg     rms          rms(c)
DAV:   1    -0.129528790606E+03   -0.25892E-02   -0.30268E-01   331   0.292E+00    0.185E-01
DAV:   2    -0.129529822136E+03   -0.10315E-02   -0.14657E-02   378   0.556E-01    0.111E-01
DAV:   3    -0.129529698770E+03    0.12337E-03   -0.43696E-04   414   0.119E-01    0.647E-02
DAV:   4    -0.129529624944E+03    0.73826E-04   -0.25886E-04   296   0.865E-02    0.170E-02
DAV:   5    -0.129529616484E+03    0.84597E-05   -0.67051E-05   368   0.416E-02    0.834E-03
DAV:   6    -0.129529616852E+03   -0.36781E-06   -0.80749E-06   338   0.156E-02
  36 F= -.12952962E+03 E0= -.12952962E+03  d E =-.340837E-02
       N       E                     dE             d eps       ncg     rms          rms(c)
DAV:   1    -0.129529671912E+03   -0.55428E-04   -0.53190E-04   398   0.119E-01    0.845E-03
DAV:   2    -0.129529678580E+03   -0.66686E-05   -0.19410E-05   368   0.212E-02    0.450E-03
DAV:   3    -0.129529684046E+03   -0.54658E-05   -0.19919E-06   245   0.728E-03    0.221E-03
DAV:   4    -0.129529690381E+03   -0.63354E-05   -0.53724E-07   306   0.346E-03    0.795E-04
DAV:   5    -0.129529695604E+03   -0.52224E-05   -0.24751E-07   327   0.194E-03    0.379E-04
DAV:   6    -0.129529699326E+03   -0.37226E-05   -0.12063E-07   292   0.130E-03
  37 F= -.12952970E+03 E0= -.12952970E+03  d E =-.824746E-04
       N       E                     dE             d eps       ncg     rms          rms(c)
DAV:   1    -0.129529756782E+03   -0.61178E-04   -0.16248E-03   331   0.212E-01    0.135E-02
DAV:   2    -0.129529763165E+03   -0.63828E-05   -0.73241E-05   367   0.396E-02    0.788E-03
DAV:   3    -0.129529763846E+03   -0.68154E-06   -0.38311E-06   218   0.103E-02    0.457E-03
DAV:   4    -0.129529765257E+03   -0.14103E-05   -0.22418E-06   282   0.753E-03    0.121E-03
DAV:   5    -0.129529766055E+03   -0.79804E-06   -0.54097E-07   262   0.401E-03    0.597E-04
DAV:   6    -0.129529766479E+03   -0.42486E-06   -0.95031E-08   252   0.173E-03
  38 F= -.12952977E+03 E0= -.12952977E+03  d E =-.671531E-04
       N       E                     dE             d eps       ncg     rms          rms(c)
DAV:   1    -0.129529773941E+03   -0.78859E-05   -0.20225E-03   355   0.238E-01    0.146E-02
DAV:   2    -0.129529779318E+03   -0.53774E-05   -0.88432E-05   307   0.436E-02    0.875E-03
DAV:   3    -0.129529778533E+03    0.78503E-06   -0.47776E-06   272   0.115E-02    0.515E-03
DAV:   4    -0.129529777784E+03    0.74921E-06   -0.28331E-06   264   0.851E-03    0.140E-03
DAV:   5    -0.129529777750E+03    0.33880E-07   -0.69646E-07   272   0.460E-03    0.700E-04
DAV:   6    -0.129529777870E+03   -0.12062E-06   -0.13014E-07   254   0.199E-03
  39 F= -.12952978E+03 E0= -.12952978E+03  d E =-.113909E-04
       N       E                     dE             d eps       ncg     rms          rms(c)
DAV:   1    -0.129529761587E+03    0.16163E-04   -0.12966E-03   358   0.191E-01    0.105E-02
DAV:   2    -0.129529763642E+03   -0.20557E-05   -0.42066E-05   256   0.317E-02    0.641E-03
DAV:   3    -0.129529763509E+03    0.13327E-06   -0.50166E-06   240   0.114E-02    0.358E-03
DAV:   4    -0.129529763321E+03    0.18786E-06   -0.15480E-06   236   0.641E-03    0.113E-03
DAV:   5    -0.129529763416E+03   -0.94391E-07   -0.41178E-07   224   0.340E-03    0.514E-04
DAV:   6    -0.129529763639E+03   -0.22293E-06   -0.10596E-07   208   0.172E-03
  40 F= -.12952976E+03 E0= -.12952976E+03  d E =0.142318E-04
       N       E                     dE             d eps       ncg     rms          rms(c)
DAV:   1    -0.129529776142E+03   -0.12726E-04   -0.88693E-04   367   0.153E-01    0.709E-03
DAV:   2    -0.129529776983E+03   -0.84135E-06   -0.14030E-05   176   0.192E-02    0.429E-03
DAV:   3    -0.129529777424E+03   -0.44065E-06   -0.17251E-06   189   0.700E-03    0.216E-03
DAV:   4    -0.129529777882E+03   -0.45814E-06   -0.52862E-07   231   0.374E-03    0.617E-04
DAV:   5    -0.129529778106E+03   -0.22411E-06   -0.99657E-08   208   0.191E-03    0.310E-04
DAV:   6    -0.129529778314E+03   -0.20852E-06    0.34737E-09   220   0.914E-04
  41 F= -.12952978E+03 E0= -.12952978E+03  d E =-.146759E-04
       N       E                     dE             d eps       ncg     rms          rms(c)
DAV:   1    -0.129529826763E+03   -0.48657E-04   -0.15453E-03   370   0.205E-01    0.963E-03
DAV:   2    -0.129529829125E+03   -0.23628E-05   -0.34496E-05   211   0.291E-02    0.596E-03
DAV:   3    -0.129529829616E+03   -0.49106E-06   -0.39680E-06   253   0.102E-02    0.322E-03
DAV:   4    -0.129529830023E+03   -0.40610E-06   -0.10664E-06   212   0.547E-03    0.786E-04
DAV:   5    -0.129529830128E+03   -0.10499E-06   -0.22815E-07   272   0.274E-03    0.406E-04
DAV:   6    -0.129529830198E+03   -0.70363E-07   -0.14022E-08   206   0.125E-03
  42 F= -.12952983E+03 E0= -.12952983E+03  d E =-.518835E-04
       N       E                     dE             d eps       ncg     rms          rms(c)
DAV:   1    -0.129529878158E+03   -0.48031E-04   -0.34662E-03   400   0.310E-01    0.156E-02
DAV:   2    -0.129529884455E+03   -0.62965E-05   -0.10392E-04   234   0.488E-02    0.963E-03
DAV:   3    -0.129529884041E+03    0.41402E-06   -0.80937E-06   263   0.139E-02    0.560E-03
DAV:   4    -0.129529883622E+03    0.41913E-06   -0.42339E-06   264   0.968E-03    0.149E-03
DAV:   5    -0.129529883501E+03    0.12012E-06   -0.76502E-07   272   0.482E-03    0.830E-04
DAV:   6    -0.129529883550E+03   -0.48178E-07   -0.11582E-07   204   0.199E-03
  43 F= -.12952988E+03 E0= -.12952988E+03  d E =-.533517E-04
       N       E                     dE             d eps       ncg     rms          rms(c)
DAV:   1    -0.129529893962E+03   -0.10460E-04   -0.48397E-03   359   0.364E-01    0.177E-02
DAV:   2    -0.129529902002E+03   -0.80400E-05   -0.13256E-04   268   0.551E-02    0.108E-02
DAV:   3    -0.129529901698E+03    0.30377E-06   -0.10237E-05   270   0.157E-02    0.618E-03
DAV:   4    -0.129529901496E+03    0.20202E-06   -0.43196E-06   201   0.107E-02    0.132E-03
DAV:   5    -0.129529901609E+03   -0.11282E-06   -0.11004E-06   230   0.522E-03    0.811E-04
DAV:   6    -0.129529901830E+03   -0.22139E-06   -0.28767E-07   184   0.234E-03
  44 F= -.12952990E+03 E0= -.12952990E+03  d E =-.182803E-04
       N       E                     dE             d eps       ncg     rms          rms(c)
DAV:   1    -0.129529934954E+03   -0.33345E-04   -0.45261E-03   349   0.346E-01    0.151E-02
DAV:   2    -0.129529939770E+03   -0.48159E-05   -0.78894E-05   249   0.434E-02    0.915E-03
DAV:   3    -0.129529940880E+03   -0.11109E-05   -0.65516E-06   173   0.124E-02    0.467E-03
DAV:   4    -0.129529941998E+03   -0.11175E-05   -0.23034E-06   239   0.747E-03    0.912E-04
DAV:   5    -0.129529942344E+03   -0.34599E-06   -0.59820E-07   200   0.360E-03    0.511E-04
DAV:   6    -0.129529942655E+03   -0.31081E-06   -0.15979E-07   247   0.163E-03
  45 F= -.12952994E+03 E0= -.12952994E+03  d E =-.408248E-04
       N       E                     dE             d eps       ncg     rms          rms(c)
DAV:   1    -0.129530030481E+03   -0.88137E-04   -0.66549E-03   328   0.426E-01    0.189E-02
DAV:   2    -0.129530039496E+03   -0.90155E-05   -0.14084E-04   282   0.570E-02    0.127E-02
DAV:   3    -0.129530040040E+03   -0.54315E-06   -0.90652E-06   261   0.157E-02    0.736E-03
DAV:   4    -0.129530041394E+03   -0.13544E-05   -0.51093E-06   267   0.114E-02    0.203E-03
DAV:   5    -0.129530041422E+03   -0.28411E-07   -0.12381E-06   272   0.617E-03    0.891E-04
DAV:   6    -0.129530041523E+03   -0.10087E-06   -0.19520E-07   238   0.246E-03
  46 F= -.12953004E+03 E0= -.12953004E+03  d E =-.988685E-04
       N       E                     dE             d eps       ncg     rms          rms(c)
DAV:   1    -0.129530096071E+03   -0.54649E-04   -0.11299E-02   352   0.561E-01    0.251E-02
DAV:   2    -0.129530112549E+03   -0.16477E-04   -0.27553E-04   356   0.790E-02    0.173E-02
DAV:   3    -0.129530111545E+03    0.10035E-05   -0.15976E-05   272   0.207E-02    0.104E-02
DAV:   4    -0.129530112145E+03   -0.59951E-06   -0.97164E-06   248   0.158E-02    0.284E-03
DAV:   5    -0.129530112049E+03    0.96002E-07   -0.25564E-06   272   0.893E-03    0.119E-03
DAV:   6    -0.129530112248E+03   -0.19932E-06   -0.50196E-07   214   0.357E-03
  47 F= -.12953011E+03 E0= -.12953011E+03  d E =-.707247E-04
       N       E                     dE             d eps       ncg     rms          rms(c)
DAV:   1    -0.129530199210E+03   -0.87162E-04   -0.14538E-02   332   0.623E-01    0.258E-02
DAV:   2    -0.129530217065E+03   -0.17855E-04   -0.27591E-04   292   0.785E-02    0.163E-02
DAV:   3    -0.129530218840E+03   -0.17754E-05   -0.14482E-05   239   0.198E-02    0.907E-03
DAV:   4    -0.129530222154E+03   -0.33139E-05   -0.61541E-06   218   0.135E-02    0.177E-03
DAV:   5    -0.129530222576E+03   -0.42220E-06   -0.15366E-06   222   0.636E-03    0.953E-04
DAV:   6    -0.129530222908E+03   -0.33165E-06   -0.30307E-07   216   0.256E-03
  48 F= -.12953022E+03 E0= -.12953022E+03  d E =-.110660E-03
       N       E                     dE             d eps       ncg     rms          rms(c)
DAV:   1    -0.129530328190E+03   -0.10561E-03   -0.26199E-02   334   0.835E-01    0.355E-02
DAV:   2    -0.129530376725E+03   -0.48535E-04   -0.67596E-04   401   0.117E-01    0.230E-02
DAV:   3    -0.129530373915E+03    0.28102E-05   -0.10317E-05   308   0.190E-02    0.134E-02
DAV:   4    -0.129530377026E+03   -0.31115E-05   -0.12708E-05   268   0.195E-02    0.223E-03
DAV:   5    -0.129530377339E+03   -0.31213E-06   -0.24319E-06   272   0.828E-03    0.148E-03
DAV:   6    -0.129530377505E+03   -0.16637E-06   -0.25522E-07   250   0.290E-03
  49 F= -.12953038E+03 E0= -.12953038E+03  d E =-.154597E-03
       N       E                     dE             d eps       ncg     rms          rms(c)
DAV:   1    -0.129530485221E+03   -0.10788E-03   -0.33206E-02   336   0.933E-01    0.361E-02
DAV:   2    -0.129530540413E+03   -0.55191E-04   -0.75556E-04   336   0.123E-01    0.238E-02
DAV:   3    -0.129530539382E+03    0.10311E-05   -0.11989E-05   255   0.204E-02    0.142E-02
DAV:   4    -0.129530546366E+03   -0.69847E-05   -0.13306E-05   200   0.208E-02    0.254E-03
DAV:   5    -0.129530546919E+03   -0.55239E-06   -0.34719E-06   240   0.942E-03    0.166E-03
DAV:   6    -0.129530547285E+03   -0.36619E-06   -0.50282E-07   208   0.318E-03
  50 F= -.12953055E+03 E0= -.12953055E+03  d E =-.169780E-03
       N       E                     dE             d eps       ncg     rms          rms(c)
DAV:   1    -0.129530673557E+03   -0.12664E-03   -0.51179E-02   332   0.116E+00    0.443E-02
DAV:   2    -0.129530773425E+03   -0.99868E-04   -0.13366E-03   361   0.160E-01    0.325E-02
DAV:   3    -0.129530766807E+03    0.66180E-05   -0.21076E-05   272   0.278E-02    0.209E-02
DAV:   4    -0.129530776796E+03   -0.99892E-05   -0.32662E-05   264   0.302E-02    0.522E-03
DAV:   5    -0.129530776931E+03   -0.13509E-06   -0.81964E-06   272   0.153E-02    0.230E-03
DAV:   6    -0.129530777251E+03   -0.31998E-06   -0.11117E-06   272   0.527E-03
  51 F= -.12953078E+03 E0= -.12953078E+03  d E =-.229967E-03
       N       E                     dE             d eps       ncg     rms          rms(c)
DAV:   1    -0.129530902514E+03   -0.12558E-03   -0.79974E-02   334   0.141E+00    0.516E-02
DAV:   2    -0.129531053056E+03   -0.15054E-03   -0.19521E-03   353   0.190E-01    0.348E-02
DAV:   3    -0.129531050490E+03    0.25662E-05   -0.28608E-05   268   0.291E-02    0.214E-02
DAV:   4    -0.129531066554E+03   -0.16064E-04   -0.27089E-05   282   0.304E-02    0.390E-03
DAV:   5    -0.129531067498E+03   -0.94452E-06   -0.65570E-06   272   0.132E-02    0.243E-03
DAV:   6    -0.129531068049E+03   -0.55074E-06   -0.68777E-07   226   0.422E-03
  52 F= -.12953107E+03 E0= -.12953107E+03  d E =-.290797E-03
       N       E                     dE             d eps       ncg     rms          rms(c)
DAV:   1    -0.129531092656E+03   -0.25158E-04   -0.13489E-01   330   0.182E+00    0.661E-02
DAV:   2    -0.129531358192E+03   -0.26554E-03   -0.33980E-03   329   0.250E-01    0.449E-02
DAV:   3    -0.129531351849E+03    0.63433E-05   -0.50126E-05   350   0.373E-02    0.277E-02
DAV:   4    -0.129531373359E+03   -0.21510E-04   -0.47273E-05   280   0.403E-02    0.460E-03
DAV:   5    -0.129531375265E+03   -0.19055E-05   -0.11444E-05   272   0.170E-02    0.332E-03
DAV:   6    -0.129531376425E+03   -0.11607E-05   -0.13790E-06   258   0.596E-03
  53 F= -.12953138E+03 E0= -.12953138E+03  d E =-.308376E-03
       N       E                     dE             d eps       ncg     rms          rms(c)
DAV:   1    -0.129531312659E+03    0.62606E-04   -0.19842E-01   334   0.220E+00    0.823E-02
DAV:   2    -0.129531722974E+03   -0.41032E-03   -0.52922E-03   329   0.310E-01    0.599E-02
DAV:   3    -0.129531704195E+03    0.18779E-04   -0.91411E-05   368   0.520E-02    0.389E-02
DAV:   4    -0.129531733407E+03   -0.29212E-04   -0.93578E-05   264   0.550E-02    0.759E-03
DAV:   5    -0.129531735839E+03   -0.24324E-05   -0.22723E-05   272   0.243E-02    0.420E-03
DAV:   6    -0.129531736976E+03   -0.11371E-05   -0.25874E-06   272   0.802E-03
  54 F= -.12953174E+03 E0= -.12953174E+03  d E =-.360551E-03
       N       E                     dE             d eps       ncg     rms          rms(c)
DAV:   1    -0.129531394015E+03    0.34182E-03   -0.30304E-01   328   0.272E+00    0.104E-01
DAV:   2    -0.129532057739E+03   -0.66372E-03   -0.84309E-03   360   0.392E-01    0.720E-02
DAV:   3    -0.129532023097E+03    0.34642E-04   -0.10381E-04   332   0.575E-02    0.446E-02
DAV:   4    -0.129532053149E+03   -0.30052E-04   -0.12364E-04   267   0.629E-02    0.735E-03
DAV:   5    -0.129532058069E+03   -0.49198E-05   -0.28464E-05   304   0.265E-02    0.523E-03
DAV:   6    -0.129532060134E+03   -0.20651E-05   -0.30053E-06   304   0.872E-03
  55 F= -.12953206E+03 E0= -.12953206E+03  d E =-.323158E-03
       N       E                     dE             d eps       ncg     rms          rms(c)
DAV:   1    -0.129532251833E+03   -0.19376E-03   -0.10303E-02   367   0.522E-01    0.349E-02
DAV:   2    -0.129532288371E+03   -0.36539E-04   -0.46817E-04   336   0.972E-02    0.201E-02
DAV:   3    -0.129532287215E+03    0.11563E-05   -0.15940E-05   277   0.226E-02    0.114E-02
DAV:   4    -0.129532288362E+03   -0.11468E-05   -0.10044E-05   264   0.163E-02    0.264E-03
DAV:   5    -0.129532289626E+03   -0.12644E-05   -0.24369E-06   277   0.781E-03    0.130E-03
DAV:   6    -0.129532290466E+03   -0.83969E-06   -0.38706E-07   254   0.325E-03
  56 F= -.12953229E+03 E0= -.12953229E+03  d E =-.230332E-03
       N       E                     dE             d eps       ncg     rms          rms(c)
DAV:   1    -0.129532152388E+03    0.13724E-03   -0.12375E-02   337   0.578E-01    0.370E-02
DAV:   2    -0.129532189513E+03   -0.37125E-04   -0.57119E-04   388   0.108E-01    0.224E-02
DAV:   3    -0.129532182359E+03    0.71540E-05   -0.18530E-05   272   0.248E-02    0.129E-02
DAV:   4    -0.129532176877E+03    0.54817E-05   -0.15361E-05   296   0.198E-02    0.312E-03
DAV:   5    -0.129532176310E+03    0.56761E-06   -0.35838E-06   272   0.103E-02    0.163E-03
DAV:   6    -0.129532176712E+03   -0.40215E-06   -0.66482E-07   218   0.428E-03
  57 F= -.12953218E+03 E0= -.12953218E+03  d E =0.113754E-03
       N       E                     dE             d eps       ncg     rms          rms(c)
DAV:   1    -0.129532234280E+03   -0.57970E-04   -0.45615E-04   367   0.110E-01    0.748E-03
DAV:   2    -0.129532236651E+03   -0.23718E-05   -0.18118E-05   250   0.201E-02    0.416E-03
DAV:   3    -0.129532237794E+03   -0.11424E-05   -0.20883E-06   214   0.715E-03    0.210E-03
DAV:   4    -0.129532239241E+03   -0.14474E-05   -0.69559E-07   289   0.366E-03    0.762E-04
DAV:   5    -0.129532240236E+03   -0.99509E-06   -0.13144E-07   271   0.205E-03    0.363E-04
DAV:   6    -0.129532240689E+03   -0.45309E-06   -0.87036E-09   204   0.940E-04
  58 F= -.12953224E+03 E0= -.12953224E+03  d E =-.639776E-04
       N       E                     dE             d eps       ncg     rms          rms(c)
DAV:   1    -0.129532306895E+03   -0.66658E-04   -0.14533E-03   380   0.196E-01    0.129E-02
DAV:   2    -0.129532311206E+03   -0.43109E-05   -0.61886E-05   233   0.364E-02    0.721E-03
DAV:   3    -0.129532311236E+03   -0.30466E-07   -0.47594E-06   261   0.105E-02    0.420E-03
DAV:   4    -0.129532311261E+03   -0.25372E-07   -0.26157E-06   266   0.752E-03    0.124E-03
DAV:   5    -0.129532311321E+03   -0.59527E-07   -0.47972E-07   272   0.387E-03    0.643E-04
DAV:   6    -0.129532311402E+03   -0.80815E-07   -0.49674E-08   222   0.167E-03
  59 F= -.12953231E+03 E0= -.12953231E+03  d E =-.707123E-04
