 vasp.5.4.1 24Jun15 (build Jan 13 2020 12:58:22) complex                        
  
 executed on           IFC91_ompi date 2020.02.03  09:59:13
 running on   15 total cores
 each image running on    1 cores
 distrk:  each k-point on    1 cores,    1 groups
 distr:  one band on NCORES_PER_BAND=   1 cores,    1 groups


--------------------------------------------------------------------------------------------------------


 INCAR:
 POTCAR:    PAW_PBE H 15Jun2001                   
 POTCAR:    PAW_PBE C 08Apr2002                   
 POTCAR:    PAW_PBE N 08Apr2002                   
 POTCAR:    PAW_PBE O 08Apr2002                   
 POTCAR:    PAW_PBE H 15Jun2001                   
   VRHFIN =H: ultrasoft test                                                    
   LEXCH  = PE                                                                  
   EATOM  =    12.4884 eV,    0.9179 Ry                                         
                                                                                
   TITEL  = PAW_PBE H 15Jun2001                                                 
   LULTRA =        F    use ultrasoft PP ?                                      
   IUNSCR =        0    unscreen: 0-lin 1-nonlin 2-no                           
   RPACOR =    0.000    partial core radius                                     
   POMASS =    1.000; ZVAL   =    1.000    mass and valenz                      
   RCORE  =    1.100    outmost cutoff radius                                   
   RWIGS  =    0.700; RWIGS  =    0.370    wigner-seitz radius (au A)           
   ENMAX  =  250.000; ENMIN  =  200.000 eV                                      
   RCLOC  =    0.701    cutoff for local pot                                    
   LCOR   =        T    correct aug charges                                     
   LPAW   =        T    paw PP                                                  
   EAUG   =  400.000                                                            
   RMAX   =    1.123    core radius for proj-oper                               
   RAUG   =    1.200    factor for augmentation sphere                          
   RDEP   =    1.112    radius for radial grids                                 
   RDEPT  =    0.926    core radius for aug-charge                              
                                                                                
   Atomic configuration                                                         
    2 entries                                                                   
     n  l   j            E        occ.                                          
     1  0  0.50        -6.4927   1.0000                                         
     2  1  0.50        -3.4015   0.0000                                         
   Description                                                                  
     l       E           TYP  RCUT    TYP  RCUT                                 
     0     -6.4927494     23  1.100                                             
     0      6.8029130     23  1.100                                             
     1     -4.0817478     23  1.100                                             
  local pseudopotential read in
  atomic valenz-charges read in
  non local Contribution for L=           0  read in
    real space projection operators read in
  non local Contribution for L=           0  read in
    real space projection operators read in
  non local Contribution for L=           1  read in
    real space projection operators read in
    PAW grid and wavefunctions read in
 
   number of l-projection  operators is LMAX  =           3
   number of lm-projection operators is LMMAX =           5
 
 POTCAR:    PAW_PBE C 08Apr2002                   
   VRHFIN =C: s2p2                                                              
   LEXCH  = PE                                                                  
   EATOM  =   147.1560 eV,   10.8157 Ry                                         
                                                                                
   TITEL  = PAW_PBE C 08Apr2002                                                 
   LULTRA =        F    use ultrasoft PP ?                                      
   IUNSCR =        1    unscreen: 0-lin 1-nonlin 2-no                           
   RPACOR =    1.200    partial core radius                                     
   POMASS =   12.011; ZVAL   =    4.000    mass and valenz                      
   RCORE  =    1.500    outmost cutoff radius                                   
   RWIGS  =    1.630; RWIGS  =    0.863    wigner-seitz radius (au A)           
   ENMAX  =  400.000; ENMIN  =  300.000 eV                                      
   ICORE  =        2    local potential                                         
   LCOR   =        T    correct aug charges                                     
   LPAW   =        T    paw PP                                                  
   EAUG   =  644.873                                                            
   DEXC   =    0.000                                                            
   RMAX   =    1.529    core radius for proj-oper                               
   RAUG   =    1.300    factor for augmentation sphere                          
   RDEP   =    1.501    radius for radial grids                                 
   RDEPT  =    1.300    core radius for aug-charge                              
                                                                                
   Atomic configuration                                                         
    4 entries                                                                   
     n  l   j            E        occ.                                          
     1  0  0.50      -273.3789   2.0000                                         
     2  0  0.50       -13.7508   2.0000                                         
     2  1  0.50        -5.2854   2.0000                                         
     3  2  1.50        -5.4423   0.0000                                         
   Description                                                                  
     l       E           TYP  RCUT    TYP  RCUT                                 
     0    -13.7508458     23  1.200                                             
     0     -8.2022199     23  1.200                                             
     1     -5.2854383     23  1.500                                             
     1     34.0145650     23  1.500                                             
     2     -5.4423304      7  1.500                                             
  local pseudopotential read in
  partial core-charges read in
  partial kinetic energy density read in
  atomic valenz-charges read in
  non local Contribution for L=           0  read in
    real space projection operators read in
  non local Contribution for L=           0  read in
    real space projection operators read in
  non local Contribution for L=           1  read in
    real space projection operators read in
  non local Contribution for L=           1  read in
    real space projection operators read in
    PAW grid and wavefunctions read in
 
   number of l-projection  operators is LMAX  =           4
   number of lm-projection operators is LMMAX =           8
 
 POTCAR:    PAW_PBE N 08Apr2002                   
   VRHFIN =N: s2p3                                                              
   LEXCH  = PE                                                                  
   EATOM  =   264.5486 eV,   19.4438 Ry                                         
                                                                                
   TITEL  = PAW_PBE N 08Apr2002                                                 
   LULTRA =        F    use ultrasoft PP ?                                      
   IUNSCR =        1    unscreen: 0-lin 1-nonlin 2-no                           
   RPACOR =    1.200    partial core radius                                     
   POMASS =   14.001; ZVAL   =    5.000    mass and valenz                      
   RCORE  =    1.500    outmost cutoff radius                                   
   RWIGS  =    1.400; RWIGS  =    0.741    wigner-seitz radius (au A)           
   ENMAX  =  400.000; ENMIN  =  300.000 eV                                      
   ICORE  =        2    local potential                                         
   LCOR   =        T    correct aug charges                                     
   LPAW   =        T    paw PP                                                  
   EAUG   =  627.112                                                            
   DEXC   =    0.000                                                            
   RMAX   =    1.529    core radius for proj-oper                               
   RAUG   =    1.300    factor for augmentation sphere                          
   RDEP   =    1.514    radius for radial grids                                 
   RDEPT  =    1.338    core radius for aug-charge                              
                                                                                
   Atomic configuration                                                         
    4 entries                                                                   
     n  l   j            E        occ.                                          
     1  0  0.50      -384.7179   2.0000                                         
     2  0  0.50       -18.5828   2.0000                                         
     2  1  0.50        -7.0898   3.0000                                         
     3  2  1.50        -6.8029   0.0000                                         
   Description                                                                  
     l       E           TYP  RCUT    TYP  RCUT                                 
     0    -18.5828119     23  1.200                                             
     0    -13.5018863     23  1.200                                             
     1     -7.0897853     23  1.500                                             
     1      9.5240782     23  1.500                                             
     2     -6.8029130      7  1.500                                             
  local pseudopotential read in
  partial core-charges read in
  partial kinetic energy density read in
  atomic valenz-charges read in
  non local Contribution for L=           0  read in
    real space projection operators read in
  non local Contribution for L=           0  read in
    real space projection operators read in
  non local Contribution for L=           1  read in
    real space projection operators read in
  non local Contribution for L=           1  read in
    real space projection operators read in
    PAW grid and wavefunctions read in
 
   number of l-projection  operators is LMAX  =           4
   number of lm-projection operators is LMMAX =           8
 
 POTCAR:    PAW_PBE O 08Apr2002                   
   VRHFIN =O: s2p4                                                              
   LEXCH  = PE                                                                  
   EATOM  =   432.3788 eV,   31.7789 Ry                                         
                                                                                
   TITEL  = PAW_PBE O 08Apr2002                                                 
   LULTRA =        F    use ultrasoft PP ?                                      
   IUNSCR =        1    unscreen: 0-lin 1-nonlin 2-no                           
   RPACOR =    1.200    partial core radius                                     
   POMASS =   16.000; ZVAL   =    6.000    mass and valenz                      
   RCORE  =    1.520    outmost cutoff radius                                   
   RWIGS  =    1.550; RWIGS  =    0.820    wigner-seitz radius (au A)           
   ENMAX  =  400.000; ENMIN  =  300.000 eV                                      
   ICORE  =        2    local potential                                         
   LCOR   =        T    correct aug charges                                     
   LPAW   =        T    paw PP                                                  
   EAUG   =  605.392                                                            
   DEXC   =    0.000                                                            
   RMAX   =    1.553    core radius for proj-oper                               
   RAUG   =    1.300    factor for augmentation sphere                          
   RDEP   =    1.550    radius for radial grids                                 
   RDEPT  =    1.329    core radius for aug-charge                              
                                                                                
   Atomic configuration                                                         
    4 entries                                                                   
     n  l   j            E        occ.                                          
     1  0  0.50      -514.6923   2.0000                                         
     2  0  0.50       -23.9615   2.0000                                         
     2  1  0.50        -9.0305   4.0000                                         
     3  2  1.50        -9.5241   0.0000                                         
   Description                                                                  
     l       E           TYP  RCUT    TYP  RCUT                                 
     0    -23.9615318     23  1.200                                             
     0     -9.5240782     23  1.200                                             
     1     -9.0304911     23  1.520                                             
     1      8.1634956     23  1.520                                             
     2     -9.5240782      7  1.500                                             
  local pseudopotential read in
  partial core-charges read in
  partial kinetic energy density read in
  kinetic energy density of atom read in
  atomic valenz-charges read in
  non local Contribution for L=           0  read in
    real space projection operators read in
  non local Contribution for L=           0  read in
    real space projection operators read in
  non local Contribution for L=           1  read in
    real space projection operators read in
  non local Contribution for L=           1  read in
    real space projection operators read in
    PAW grid and wavefunctions read in
 
   number of l-projection  operators is LMAX  =           4
   number of lm-projection operators is LMMAX =           8
 
 Optimization of the real space projectors (new method)

 maximal supplied QI-value         = 34.20
 optimisation between [QCUT,QGAM] = [  9.92, 20.18] = [ 27.55,114.04] Ry 
 Optimized for a Real-space Cutoff    1.26 Angstroem

   l    n(q)    QCUT    max X(q) W(low)/X(q) W(high)/X(q)  e(spline) 
   0      8     9.919    19.460    0.50E-03    0.23E-03    0.29E-06
   0      8     9.919    12.209    0.48E-03    0.23E-03    0.28E-06
   1      7     9.919     4.655    0.17E-03    0.75E-03    0.30E-06
 Optimization of the real space projectors (new method)

 maximal supplied QI-value         = 25.13
 optimisation between [QCUT,QGAM] = [ 10.05, 20.36] = [ 28.30,116.06] Ry 
 Optimized for a Real-space Cutoff    1.30 Angstroem

   l    n(q)    QCUT    max X(q) W(low)/X(q) W(high)/X(q)  e(spline) 
   0      8    10.053   115.676    0.49E-03    0.72E-03    0.18E-06
   0      8    10.053    87.132    0.49E-03    0.71E-03    0.18E-06
   1      7    10.053     4.429    0.32E-03    0.31E-03    0.18E-06
   1      7    10.053     2.733    0.23E-03    0.19E-03    0.20E-06
 Optimization of the real space projectors (new method)

 maximal supplied QI-value         = 25.13
 optimisation between [QCUT,QGAM] = [ 10.05, 20.36] = [ 28.30,116.06] Ry 
 Optimized for a Real-space Cutoff    1.65 Angstroem

   l    n(q)    QCUT    max X(q) W(low)/X(q) W(high)/X(q)  e(spline) 
   0     10    10.053    79.467    0.76E-04    0.72E-04    0.56E-06
   0     10    10.053    66.151    0.76E-04    0.72E-04    0.55E-06
   1     10    10.053     8.350    0.25E-03    0.92E-03    0.41E-05
   1     10    10.053     5.531    0.27E-03    0.10E-02    0.45E-05
 Optimization of the real space projectors (new method)

 maximal supplied QI-value         = 24.76
 optimisation between [QCUT,QGAM] = [ 10.15, 20.30] = [ 28.85,115.39] Ry 
 Optimized for a Real-space Cutoff    1.38 Angstroem

   l    n(q)    QCUT    max X(q) W(low)/X(q) W(high)/X(q)  e(spline) 
   0      8    10.150    20.381    0.22E-03    0.32E-03    0.29E-06
   0      8    10.150    15.268    0.23E-03    0.35E-03    0.30E-06
   1      8    10.150     5.964    0.46E-03    0.53E-03    0.21E-06
   1      8    10.150     5.382    0.38E-03    0.45E-03    0.19E-06
  PAW_PBE H 15Jun2001                   :
 energy of atom  1       EATOM=  -12.4884
 kinetic energy error for atom=    0.0098 (will be added to EATOM!!)
  PAW_PBE C 08Apr2002                   :
 energy of atom  2       EATOM= -147.1560
 kinetic energy error for atom=    0.0288 (will be added to EATOM!!)
  PAW_PBE N 08Apr2002                   :
 energy of atom  3       EATOM= -264.5486
 kinetic energy error for atom=    0.0736 (will be added to EATOM!!)
  PAW_PBE O 08Apr2002                   :
 energy of atom  4       EATOM= -432.3788
 kinetic energy error for atom=    0.1156 (will be added to EATOM!!)
 
 
 POSCAR: H12 C6 N2 O2                            
  positions in direct lattice
  velocities in cartesian coordinates
 exchange correlation table for  LEXCH =        8
   RHO(1)=    0.500       N(1)  =     2000
   RHO(2)=  100.500       N(2)  =     4000

 VTST: version 3.2, (02/03/18)

 CHAIN: initializing optimizer
 
 OPT: Using FIRE optimizer
 OPT: FIRE, Init
 OPT: FIRE, MAXMOVE       0.20000
 OPT: FIRE, TIMESTEP      0.10000
 OPT: FIRE, FTIMEMAX      1.00000
 OPT: FIRE, FTIMEINC      1.10000
 OPT: FIRE, FTIMEDEC      0.50000
 OPT: FIRE, FALPHADEC     0.99000
 OPT: FIRE, FALPHA        0.10000
 OPT: FIRE, FNMIN         5
 
 CHAIN: Read ICHAIN            0
 CHAIN: Running the NEB
 NEB:          SPRING     -5.000000
 NEB:          LCLIMB      T
 NEB:     LTANGENTOLD      F
 NEB:           LDNEB      F
 NEB:        LDNEBORG      F
 NEB:        LNEBCELL      F
 NEB:          EFIRST      0.000000
 NEB:           ELAST      0.000000
 
 POSCAR: H12 C6 N2 O2                            
  positions in direct lattice
  No initial velocities read in
 
 POSCAR: H12 C6 N2 O2                            
  positions in direct lattice
  No initial velocities read in
 


--------------------------------------------------------------------------------------------------------


 ion  position               nearest neighbor table
   1  0.384  0.554  0.512-  13 1.10
   2  0.386  0.505  0.478-  13 1.10
   3  0.380  0.500  0.537-  13 1.10
   4  0.450  0.455  0.494-  19 1.02
   5  0.517  0.485  0.555-  15 1.10
   6  0.557  0.414  0.530-  16 1.10
   7  0.515  0.405  0.490-  16 1.10
   8  0.502  0.404  0.549-  16 1.10
   9  0.522  0.553  0.506-  20 1.03
  10  0.605  0.547  0.451-  18 1.10
  11  0.555  0.561  0.422-  18 1.10
  12  0.575  0.597  0.465-  18 1.10
  13  0.396  0.519  0.510-   1 1.10   2 1.10   3 1.10  14 1.52
  14  0.446  0.519  0.517-  21 1.24  19 1.36  13 1.52
  15  0.514  0.470  0.522-   5 1.10  19 1.47  16 1.52  17 1.55
  16  0.522  0.420  0.523-   6 1.10   8 1.10   7 1.10  15 1.52
  17  0.548  0.492  0.490-  22 1.24  20 1.35  15 1.55
  18  0.572  0.562  0.455-  10 1.10  12 1.10  11 1.10  20 1.45
  19  0.468  0.480  0.508-   4 1.02  14 1.36  15 1.47
  20  0.547  0.537  0.488-   9 1.03  17 1.35  18 1.45
  21  0.466  0.552  0.533-  14 1.24
  22  0.574  0.469  0.468-  17 1.24
 
  LATTYP: Found a simple cubic cell.
 ALAT       =    30.0000000000
  
  Lattice vectors:
  
 A1 = (  30.0000000000,   0.0000000000,   0.0000000000)
 A2 = (   0.0000000000,  30.0000000000,   0.0000000000)
 A3 = (   0.0000000000,   0.0000000000,  30.0000000000)


Analysis of symmetry for initial positions (statically):
=====================================================================
 Subroutine PRICEL returns:
 Original cell was already a primitive cell.
 

 Routine SETGRP: Setting up the symmetry group for a 
 simple cubic supercell.


 Subroutine GETGRP returns: Found  1 space group operations
 (whereof  1 operations were pure point group operations)
 out of a pool of 48 trial point group operations.


The static configuration has the point symmetry C_1 .


Analysis of symmetry for dynamics (positions and initial velocities):
=====================================================================
 Subroutine PRICEL returns:
 Original cell was already a primitive cell.
 

 Routine SETGRP: Setting up the symmetry group for a 
 simple cubic supercell.


 Subroutine GETGRP returns: Found  1 space group operations
 (whereof  1 operations were pure point group operations)
 out of a pool of 48 trial point group operations.


The dynamic configuration has the point symmetry C_1 .
 
 
 KPOINTS: Mo2C                                    

Automatic generation of k-mesh.
Space group operators:
 irot       det(A)        alpha          n_x          n_y          n_z        tau_x        tau_y        tau_z
    1     1.000000     0.000000     1.000000     0.000000     0.000000     0.000000     0.000000     0.000000
 
 Subroutine IBZKPT returns following result:
 ===========================================
 
 Found      4 irreducible k-points:
 
 Following reciprocal coordinates:
            Coordinates               Weight
  0.250000  0.250000  0.250000      2.000000
 -0.250000  0.250000  0.250000      2.000000
  0.250000 -0.250000  0.250000      2.000000
 -0.250000 -0.250000  0.250000      2.000000
 
 Following cartesian coordinates:
            Coordinates               Weight
  0.008333  0.008333  0.008333      2.000000
 -0.008333  0.008333  0.008333      2.000000
  0.008333 -0.008333  0.008333      2.000000
 -0.008333 -0.008333  0.008333      2.000000
 


--------------------------------------------------------------------------------------------------------




 Dimension of arrays:
   k-points           NKPTS =      4   k-points in BZ     NKDIM =      4   number of bands    NBANDS=     41
   number of dos      NEDOS =    301   number of ions     NIONS =     22
   non local maximal  LDIM  =      4   non local SUM 2l+1 LMDIM =      8
   total plane-waves  NPLWV = ******
   max r-space proj   IRMAX =   2395   max aug-charges    IRDMAX=   1821
   dimension x,y,z NGX =   150 NGY =  150 NGZ =  150
   dimension x,y,z NGXF=   300 NGYF=  300 NGZF=  300
   support grid    NGXF=   300 NGYF=  300 NGZF=  300
   ions per type =              12   6   2   2
 NGX,Y,Z   is equivalent  to a cutoff of   8.31,  8.31,  8.31 a.u.
 NGXF,Y,Z  is equivalent  to a cutoff of  16.62, 16.62, 16.62 a.u.


 I would recommend the setting:
   dimension x,y,z NGX =   147 NGY =  147 NGZ =  147
 SYSTEM =  unknown system                          
 POSCAR =  H12 C6 N2 O2                            

 Startparameter for this run:
   NWRITE =      2    write-flag & timer
   PREC   = normal    normal or accurate (medium, high low for compatibility)
   ISTART =      0    job   : 0-new  1-cont  2-samecut
   ICHARG =      2    charge: 1-file 2-atom 10-const
   ISPIN  =      1    spin polarized calculation?
   LNONCOLLINEAR =      F non collinear calculations
   LSORBIT =      F    spin-orbit coupling
   INIWAV =      1    electr: 0-lowe 1-rand  2-diag
   LASPH  =      F    aspherical Exc in radial PAW
   METAGGA=      F    non-selfconsistent MetaGGA calc.

 Electronic Relaxation 1
   ENCUT  =  400.0 eV  29.40 Ry    5.42 a.u.  48.92 48.92 48.92*2*pi/ulx,y,z
   ENINI  =  400.0     initial cutoff
   ENAUG  =  644.9 eV  augmentation charge cutoff
   NELM   =    500;   NELMIN=  6; NELMDL= -5     # of ELM steps 
   EDIFF  = 0.1E-03   stopping-criterion for ELM
   LREAL  =      T    real-space projection
   NLSPLINE    = F    spline interpolate recip. space projectors
   LCOMPAT=      F    compatible to vasp.4.4
   GGA_COMPAT  = T    GGA compatible to vasp.4.4-vasp.4.6
   LMAXPAW     = -100 max onsite density
   LMAXMIX     =    2 max onsite mixed and CHGCAR
   VOSKOWN=      0    Vosko Wilk Nusair interpolation
   ROPT   =   -0.00050  -0.00050  -0.00050  -0.00050
 Ionic relaxation
   EDIFFG = -.1E+00   stopping-criterion for IOM
   NSW    =    300    number of steps for IOM
   NBLOCK =      1;   KBLOCK =    300    inner block; outer block 
   IBRION =      3    ionic relax: 0-MD 1-quasi-New 2-CG
   NFREE  =      0    steps in history (QN), initial steepest desc. (CG)
   ISIF   =      2    stress and relaxation
   IWAVPR =     11    prediction:  0-non 1-charg 2-wave 3-comb
   ISYM   =      2    0-nonsym 1-usesym 2-fastsym
   LCORR  =      T    Harris-Foulkes like correction to forces

   POTIM  = 0.0000    time-step for ionic-motion
   TEIN   =    0.0    initial temperature
   TEBEG  =    0.0;   TEEND  =   0.0 temperature during run
   SMASS  =   2.00    Nose mass-parameter (am)
   estimated Nose-frequenzy (Omega)   =  0.24E+10 period in steps =  0.00 mass=   0.137E-25a.u.
   SCALEE = 1.0000    scale energy and forces
   NPACO  =    256;   APACO  = 16.0  distance and # of slots for P.C.
   PSTRESS=    0.0 pullay stress

  Mass of Ions in am
   POMASS =   1.00 12.01 14.00 16.00
  Ionic Valenz
   ZVAL   =   1.00  4.00  5.00  6.00
  Atomic Wigner-Seitz radii
   RWIGS  =  -1.00 -1.00 -1.00 -1.00
  virtual crystal weights 
   VCA    =   1.00  1.00  1.00  1.00
   NELECT =      58.0000    total number of electrons
   NUPDOWN=      -1.0000    fix difference up-down

 DOS related values:
   EMIN   =  10.00;   EMAX   =-10.00  energy-range for DOS
   EFERMI =   0.00
   ISMEAR =     0;   SIGMA  =   0.20  broadening in eV -4-tet -1-fermi 0-gaus

 Electronic relaxation 2 (details)
   IALGO  =     38    algorithm
   LDIAG  =      T    sub-space diagonalisation (order eigenvalues)
   LSUBROT=      F    optimize rotation matrix (better conditioning)
   TURBO    =      0    0=normal 1=particle mesh
   IRESTART =      0    0=no restart 2=restart with 2 vectors
   NREBOOT  =      0    no. of reboots
   NMIN     =      0    reboot dimension
   EREF     =   0.00    reference energy to select bands
   IMIX   =      4    mixing-type and parameters
     AMIX     =   0.40;   BMIX     =  1.00
     AMIX_MAG =   1.60;   BMIX_MAG =  1.00
     AMIN     =   0.10
     WC   =   100.;   INIMIX=   1;  MIXPRE=   1;  MAXMIX= -45

 Intra band minimization:
   WEIMIN = 0.0010     energy-eigenvalue tresh-hold
   EBREAK =  0.61E-06  absolut break condition
   DEPER  =   0.30     relativ break condition  

   TIME   =   0.40     timestep for ELM

  volume/ion in A,a.u.               =    1227.27      8282.05
  Fermi-wavevector in a.u.,A,eV,Ry     =   0.211234  0.399174  0.607087  0.044620
  Thomas-Fermi vector in A             =   0.980021
 
 Write flags
   LWAVE  =      F    write WAVECAR
   LCHARG =      F    write CHGCAR
   LVTOT  =      F    write LOCPOT, total local potential
   LVHAR  =      F    write LOCPOT, Hartree potential only
   LELF   =      F    write electronic localiz. function (ELF)
   LORBIT =      0    0 simple, 1 ext, 2 COOP (PROOUT)


 Dipole corrections
   LMONO  =      F    monopole corrections only (constant potential shift)
   LDIPOL =      F    correct potential (dipole corrections)
   IDIPOL =      0    1-x, 2-y, 3-z, 4-all directions 
   EPSILON=  1.0000000 bulk dielectric constant

 Exchange correlation treatment:
   GGA     =    PE    GGA type
   LEXCH   =     8    internal setting for exchange type
   VOSKOWN=      0    Vosko Wilk Nusair interpolation
   LHFCALC =     F    Hartree Fock is set to
   LHFONE  =     F    Hartree Fock one center treatment
   AEXX    =    0.0000 exact exchange contribution

 Linear response parameters
   LEPSILON=     F    determine dielectric tensor
   LRPA    =     F    only Hartree local field effects (RPA)
   LNABLA  =     F    use nabla operator in PAW spheres
   LVEL    =     F    velocity operator in full k-point grid
   LINTERFAST=   F  fast interpolation
   KINTER  =     0    interpolate to denser k-point grid
   CSHIFT  =0.1000    complex shift for real part using Kramers Kronig
   OMEGAMAX=  -1.0    maximum frequency
   DEG_THRESHOLD= 0.2000000E-02 threshold for treating states as degnerate
   RTIME   =    0.100 relaxation time in fs

 Orbital magnetization related:
   ORBITALMAG=     F  switch on orbital magnetization
   LCHIMAG   =     F  perturbation theory with respect to B field
   DQ        =  0.001000  dq finite difference perturbation B field



--------------------------------------------------------------------------------------------------------


 quickmin algorithm: (dynamic with friction)
 charge density and potential will be updated during run
 non-spin polarized calculation
 Variant of blocked Davidson
 Davidson routine will perform the subspace rotation
 perform sub-space diagonalisation
    after iterative eigenvector-optimisation
 modified Broyden-mixing scheme, WC =      100.0
 initial mixing is a Kerker type mixing with AMIX =  0.4000 and BMIX =      1.0000
 Hartree-type preconditioning will be used
 using additional bands           12
 real space projection scheme for non local part
 use partial core corrections
 calculate Harris-corrections to forces 
   (improved forces if not selfconsistent)
 use gradient corrections 
 use of overlap-Matrix (Vanderbilt PP)
 Gauss-broadening in eV      SIGMA  =   0.20


--------------------------------------------------------------------------------------------------------


  energy-cutoff  :      400.00
  volume of cell :    27000.00
      direct lattice vectors                 reciprocal lattice vectors
    30.000000000  0.000000000  0.000000000     0.033333333  0.000000000  0.000000000
     0.000000000 30.000000000  0.000000000     0.000000000  0.033333333  0.000000000
     0.000000000  0.000000000 30.000000000     0.000000000  0.000000000  0.033333333

  length of vectors
    30.000000000 30.000000000 30.000000000     0.033333333  0.033333333  0.033333333


 
 k-points in units of 2pi/SCALE and weight: Mo2C                                    
   0.00833333  0.00833333  0.00833333       0.250
  -0.00833333  0.00833333  0.00833333       0.250
   0.00833333 -0.00833333  0.00833333       0.250
  -0.00833333 -0.00833333  0.00833333       0.250
 
 k-points in reciprocal lattice and weights: Mo2C                                    
   0.25000000  0.25000000  0.25000000       0.250
  -0.25000000  0.25000000  0.25000000       0.250
   0.25000000 -0.25000000  0.25000000       0.250
  -0.25000000 -0.25000000  0.25000000       0.250
 
 position of ions in fractional coordinates (direct lattice) 
   0.38421403  0.55402397  0.51172528
   0.38587217  0.50487109  0.47781683
   0.37989318  0.50024576  0.53659683
   0.44973423  0.45452144  0.49423636
   0.51746789  0.48450273  0.55526083
   0.55716831  0.41365843  0.52957554
   0.51472029  0.40504241  0.49023748
   0.50162627  0.40374258  0.54859932
   0.52217018  0.55260478  0.50624165
   0.60469962  0.54672426  0.45062816
   0.55503536  0.56076229  0.42174299
   0.57530904  0.59652383  0.46488726
   0.39601447  0.51947532  0.50982828
   0.44600860  0.51876857  0.51738248
   0.51373426  0.47024088  0.52151173
   0.52181396  0.42010267  0.52283497
   0.54825231  0.49230862  0.48982734
   0.57160104  0.56167362  0.45451074
   0.46764771  0.47994444  0.50788522
   0.54679044  0.53727452  0.48798322
   0.46585272  0.55171455  0.53290936
   0.57449940  0.46941811  0.46769000
 
 position of ions in cartesian coordinates  (Angst):
  11.52642092 16.62071918 15.35175837
  11.57616504 15.14613277 14.33450480
  11.39679541 15.00737276 16.09790502
  13.49202686 13.63564324 14.82709092
  15.52403676 14.53508192 16.65782486
  16.71504929 12.40975277 15.88726618
  15.44160857 12.15127245 14.70712438
  15.04878816 12.11227751 16.45797970
  15.66510530 16.57814333 15.18724963
  18.14098874 16.40172782 13.51884488
  16.65106066 16.82286878 12.65228974
  17.25927122 17.89571486 13.94661790
  11.88043402 15.58425965 15.29484839
  13.38025792 15.56305702 15.52147426
  15.41202776 14.10722642 15.64535184
  15.65441887 12.60308000 15.68504924
  16.44756932 14.76925861 14.69482009
  17.14803114 16.85020862 13.63532213
  14.02943134 14.39833317 15.23655652
  16.40371331 16.11823565 14.63949665
  13.97558161 16.55143638 15.98728073
  17.23498208 14.08254332 14.03070003
 


--------------------------------------------------------------------------------------------------------


 k-point  1 :   0.2500 0.2500 0.2500  plane waves:  490454
 k-point  2 :  -0.2500 0.2500 0.2500  plane waves:  490454
 k-point  3 :   0.2500-0.2500 0.2500  plane waves:  490454
 k-point  4 :  -0.2500-0.2500 0.2500  plane waves:  490454

 maximum and minimum number of plane-waves per node :    490454   490454

 maximum number of plane-waves:    490454
 maximum index in each direction: 
   IXMAX=   49   IYMAX=   49   IZMAX=   48
   IXMIN=  -49   IYMIN=  -49   IZMIN=  -49

 WARNING: aliasing errors must be expected set NGX to 198 to avoid them
 WARNING: aliasing errors must be expected set NGY to 198 to avoid them
 WARNING: aliasing errors must be expected set NGZ to 196 to avoid them
 aliasing errors are usually negligible using standard VASP settings
 and one can safely disregard these warnings

 serial   3D FFT for wavefunctions
 parallel 3D FFT for charge:
    minimum data exchange during FFTs selected (reduces bandwidth)


 total amount of memory used by VASP on root node  4333708. kBytes
========================================================================

   base      :      30000. kBytes
   nonlr-proj:       2403. kBytes
   fftplans  :     924480. kBytes
   grid      :    2089440. kBytes
   one-center:         67. kBytes
   wavefun   :    1287318. kBytes
 
     INWAV:  cpu time    0.0010: real time    0.0003
 Broyden mixing: mesh for mixing (old mesh)
   NGX = 97   NGY = 97   NGZ = 97
  (NGX  =300   NGY  =300   NGZ  =300)
  gives a total of 912673 points

 initial charge density was supplied:
 charge density of overlapping atoms calculated
 number of electron      58.0000000 magnetization 
 keeping initial charge density in first step


--------------------------------------------------------------------------------------------------------


 Maximum index for non-local projection operator         2276
 Maximum index for augmentation-charges         1575 (set IRDMAX)


--------------------------------------------------------------------------------------------------------


 First call to EWALD:  gamma=   0.059
 Maximum number of real-space cells 3x 3x 3
 Maximum number of reciprocal cells 3x 3x 3

 FEWALD executed in parallel
    FEWALD:  cpu time    0.0050: real time    0.0048


----------------------------------------- Iteration    1(   1)  ---------------------------------------


    POTLOK:  cpu time   19.2491: real time   19.2329
    SETDIJ:  cpu time    0.0280: real time    0.0282
     EDDAV:  cpu time  249.0191: real time  248.8116
       DOS:  cpu time    0.0010: real time    0.0009
    --------------------------------------------
      LOOP:  cpu time  268.2992: real time  268.0774

 eigenvalue-minimisations  :   392
 total energy-change (2. order) : 0.6109694E+03  (-0.7953775E+03)
 number of electron      58.0000000 magnetization 
 augmentation part       58.0000000 magnetization 

 Free energy of the ion-electron system (eV)
  ---------------------------------------------------
  alpha Z        PSCENC =         0.51957394
  Ewald energy   TEWEN  =      6094.44673374
  -Hartree energ DENC   =     -7836.54119097
  -exchange      EXHF   =         0.00000000
  -V(xc)+E(xc)   XCENC  =       202.10102274
  PAW double counting   =      1779.70502452    -1789.20730229
  entropy T*S    EENTRO =        -0.79491804
  eigenvalues    EBANDS =      -265.24286679
  atomic energy  EATOM  =      2425.98333211
  Solvation  Ediel_sol  =         0.00000000
  ---------------------------------------------------
  free energy    TOTEN  =       610.96940896 eV

  energy without entropy =      611.76432700  energy(sigma->0) =      611.36686798


--------------------------------------------------------------------------------------------------------




----------------------------------------- Iteration    1(   2)  ---------------------------------------


     EDDAV:  cpu time  338.8515: real time  338.5703
       DOS:  cpu time    0.0010: real time    0.0007
    --------------------------------------------
      LOOP:  cpu time  338.8535: real time  338.5743

 eigenvalue-minimisations  :   571
 total energy-change (2. order) :-0.3336521E+03  (-0.3226942E+03)
 number of electron      58.0000000 magnetization 
 augmentation part       58.0000000 magnetization 

 Free energy of the ion-electron system (eV)
  ---------------------------------------------------
  alpha Z        PSCENC =         0.51957394
  Ewald energy   TEWEN  =      6094.44673374
  -Hartree energ DENC   =     -7836.54119097
  -exchange      EXHF   =         0.00000000
  -V(xc)+E(xc)   XCENC  =       202.10102274
  PAW double counting   =      1779.70502452    -1789.20730229
  entropy T*S    EENTRO =        -0.52719383
  eigenvalues    EBANDS =      -599.16266149
  atomic energy  EATOM  =      2425.98333211
  Solvation  Ediel_sol  =         0.00000000
  ---------------------------------------------------
  free energy    TOTEN  =       277.31733847 eV

  energy without entropy =      277.84453230  energy(sigma->0) =      277.58093539


--------------------------------------------------------------------------------------------------------




----------------------------------------- Iteration    1(   3)  ---------------------------------------


     EDDAV:  cpu time  300.4093: real time  300.1590
       DOS:  cpu time    0.0000: real time    0.0006
    --------------------------------------------
      LOOP:  cpu time  300.4103: real time  300.1694

 eigenvalue-minimisations  :   496
 total energy-change (2. order) :-0.3207524E+03  (-0.3120376E+03)
 number of electron      58.0000000 magnetization 
 augmentation part       58.0000000 magnetization 

 Free energy of the ion-electron system (eV)
  ---------------------------------------------------
  alpha Z        PSCENC =         0.51957394
  Ewald energy   TEWEN  =      6094.44673374
  -Hartree energ DENC   =     -7836.54119097
  -exchange      EXHF   =         0.00000000
  -V(xc)+E(xc)   XCENC  =       202.10102274
  PAW double counting   =      1779.70502452    -1789.20730229
  entropy T*S    EENTRO =        -0.01215730
  eigenvalues    EBANDS =      -920.43008307
  atomic energy  EATOM  =      2425.98333211
  Solvation  Ediel_sol  =         0.00000000
  ---------------------------------------------------
  free energy    TOTEN  =       -43.43504658 eV

  energy without entropy =      -43.42288928  energy(sigma->0) =      -43.42896793


--------------------------------------------------------------------------------------------------------




----------------------------------------- Iteration    1(   4)  ---------------------------------------


     EDDAV:  cpu time  249.9160: real time  249.7079
       DOS:  cpu time    0.0000: real time    0.0005
    --------------------------------------------
      LOOP:  cpu time  249.9170: real time  249.7117

 eigenvalue-minimisations  :   396
 total energy-change (2. order) :-0.9287441E+02  (-0.9252551E+02)
 number of electron      58.0000000 magnetization 
 augmentation part       58.0000000 magnetization 

 Free energy of the ion-electron system (eV)
  ---------------------------------------------------
  alpha Z        PSCENC =         0.51957394
  Ewald energy   TEWEN  =      6094.44673374
  -Hartree energ DENC   =     -7836.54119097
  -exchange      EXHF   =         0.00000000
  -V(xc)+E(xc)   XCENC  =       202.10102274
  PAW double counting   =      1779.70502452    -1789.20730229
  entropy T*S    EENTRO =         0.00000000
  eigenvalues    EBANDS =     -1013.31664896
  atomic energy  EATOM  =      2425.98333211
  Solvation  Ediel_sol  =         0.00000000
  ---------------------------------------------------
  free energy    TOTEN  =      -136.30945517 eV

  energy without entropy =     -136.30945517  energy(sigma->0) =     -136.30945517


--------------------------------------------------------------------------------------------------------




----------------------------------------- Iteration    1(   5)  ---------------------------------------


     EDDAV:  cpu time  267.9103: real time  267.6874
       DOS:  cpu time    0.0010: real time    0.0005
    CHARGE:  cpu time   16.2465: real time   16.2334
    MIXING:  cpu time    0.5809: real time    0.5808
    --------------------------------------------
      LOOP:  cpu time  284.7397: real time  284.5050

 eigenvalue-minimisations  :   432
 total energy-change (2. order) :-0.5584744E+01  (-0.5565974E+01)
 number of electron      57.9999961 magnetization 
 augmentation part        2.9716675 magnetization 

 Broyden mixing:
  rms(total) = 0.19550E+01    rms(broyden)= 0.19530E+01
  rms(prec ) = 0.20303E+01
  weight for this iteration     100.00

 Free energy of the ion-electron system (eV)
  ---------------------------------------------------
  alpha Z        PSCENC =         0.51957394
  Ewald energy   TEWEN  =      6094.44673374
  -Hartree energ DENC   =     -7836.54119097
  -exchange      EXHF   =         0.00000000
  -V(xc)+E(xc)   XCENC  =       202.10102274
  PAW double counting   =      1779.70502452    -1789.20730229
  entropy T*S    EENTRO =         0.00000000
  eigenvalues    EBANDS =     -1018.90139284
  atomic energy  EATOM  =      2425.98333211
  Solvation  Ediel_sol  =         0.00000000
  ---------------------------------------------------
  free energy    TOTEN  =      -141.89419906 eV

  energy without entropy =     -141.89419906  energy(sigma->0) =     -141.89419906


--------------------------------------------------------------------------------------------------------




----------------------------------------- Iteration    1(   6)  ---------------------------------------


    POTLOK:  cpu time   18.1142: real time   18.0995
    SETDIJ:  cpu time    0.0290: real time    0.0282
     EDDAV:  cpu time  265.2157: real time  264.9954
       DOS:  cpu time    0.0000: real time    0.0005
    CHARGE:  cpu time   16.2745: real time   16.2606
    MIXING:  cpu time    0.6239: real time    0.6235
    --------------------------------------------
      LOOP:  cpu time  300.2584: real time  300.0176

 eigenvalue-minimisations  :   423
 total energy-change (2. order) : 0.1010168E+02  (-0.2396348E+01)
 number of electron      57.9999966 magnetization 
 augmentation part        2.6326245 magnetization 

 Broyden mixing:
  rms(total) = 0.99986E+00    rms(broyden)= 0.99941E+00
  rms(prec ) = 0.10282E+01
  weight for this iteration     100.00

 eigenvalues of (default mixing * dielectric matrix)
  average eigenvalue GAMMA=   1.2769
  1.2769

 Free energy of the ion-electron system (eV)
  ---------------------------------------------------
  alpha Z        PSCENC =         0.51957394
  Ewald energy   TEWEN  =      6094.44673374
  -Hartree energ DENC   =     -7951.68902501
  -exchange      EXHF   =         0.00000000
  -V(xc)+E(xc)   XCENC  =       208.16906480
  PAW double counting   =      2777.16528801    -2788.02990995
  entropy T*S    EENTRO =         0.00000000
  eigenvalues    EBANDS =      -898.35757243
  atomic energy  EATOM  =      2425.98333211
  Solvation  Ediel_sol  =         0.00000000
  ---------------------------------------------------
  free energy    TOTEN  =      -131.79251478 eV

  energy without entropy =     -131.79251478  energy(sigma->0) =     -131.79251478


--------------------------------------------------------------------------------------------------------




----------------------------------------- Iteration    1(   7)  ---------------------------------------


    POTLOK:  cpu time   18.0693: real time   18.0537
    SETDIJ:  cpu time    0.0280: real time    0.0283
     EDDAV:  cpu time  261.7122: real time  261.4952
       DOS:  cpu time    0.0010: real time    0.0005
    CHARGE:  cpu time   16.2695: real time   16.2564
    MIXING:  cpu time    0.6479: real time    0.6464
    --------------------------------------------
      LOOP:  cpu time  296.7289: real time  296.5830

 eigenvalue-minimisations  :   416
 total energy-change (2. order) : 0.1763711E+01  (-0.4606968E+00)
 number of electron      57.9999966 magnetization 
 augmentation part        2.6208611 magnetization 

 Broyden mixing:
  rms(total) = 0.51464E+00    rms(broyden)= 0.51453E+00
  rms(prec ) = 0.52730E+00
  weight for this iteration     100.00

 eigenvalues of (default mixing * dielectric matrix)
  average eigenvalue GAMMA=   1.5628
  1.0993  2.0263

 Free energy of the ion-electron system (eV)
  ---------------------------------------------------
  alpha Z        PSCENC =         0.51957394
  Ewald energy   TEWEN  =      6094.44673374
  -Hartree energ DENC   =     -8013.98477318
  -exchange      EXHF   =         0.00000000
  -V(xc)+E(xc)   XCENC  =       211.19714725
  PAW double counting   =      3749.38833629    -3760.52484856
  entropy T*S    EENTRO =         0.00000000
  eigenvalues    EBANDS =      -837.05430570
  atomic energy  EATOM  =      2425.98333211
  Solvation  Ediel_sol  =         0.00000000
  ---------------------------------------------------
  free energy    TOTEN  =      -130.02880410 eV

  energy without entropy =     -130.02880410  energy(sigma->0) =     -130.02880410


--------------------------------------------------------------------------------------------------------




----------------------------------------- Iteration    1(   8)  ---------------------------------------


    POTLOK:  cpu time   18.0972: real time   18.0831
    SETDIJ:  cpu time    0.0290: real time    0.0283
     EDDAV:  cpu time  273.9334: real time  273.7053
       DOS:  cpu time    0.0010: real time    0.0005
    CHARGE:  cpu time   16.2765: real time   16.2636
    MIXING:  cpu time    0.6759: real time    0.6749
    --------------------------------------------
      LOOP:  cpu time  309.0140: real time  308.7594

 eigenvalue-minimisations  :   440
 total energy-change (2. order) : 0.4877349E+00  (-0.8631615E-01)
 number of electron      57.9999966 magnetization 
 augmentation part        2.5919085 magnetization 

 Broyden mixing:
  rms(total) = 0.15511E+00    rms(broyden)= 0.15505E+00
  rms(prec ) = 0.16265E+00
  weight for this iteration     100.00

 eigenvalues of (default mixing * dielectric matrix)
  average eigenvalue GAMMA=   1.5444
  2.3884  0.9432  1.3018

 Free energy of the ion-electron system (eV)
  ---------------------------------------------------
  alpha Z        PSCENC =         0.51957394
  Ewald energy   TEWEN  =      6094.44673374
  -Hartree energ DENC   =     -8054.70888020
  -exchange      EXHF   =         0.00000000
  -V(xc)+E(xc)   XCENC  =       213.31526977
  PAW double counting   =      4570.27096847    -4581.59133198
  entropy T*S    EENTRO =         0.00000000
  eigenvalues    EBANDS =      -797.77673501
  atomic energy  EATOM  =      2425.98333211
  Solvation  Ediel_sol  =         0.00000000
  ---------------------------------------------------
  free energy    TOTEN  =      -129.54106917 eV

  energy without entropy =     -129.54106917  energy(sigma->0) =     -129.54106917


--------------------------------------------------------------------------------------------------------




----------------------------------------- Iteration    1(   9)  ---------------------------------------


    POTLOK:  cpu time   18.1262: real time   18.1121
    SETDIJ:  cpu time    0.0280: real time    0.0283
     EDDAV:  cpu time  286.4445: real time  286.2052
       DOS:  cpu time    0.0000: real time    0.0005
    CHARGE:  cpu time   16.2445: real time   16.2313
    MIXING:  cpu time    0.7149: real time    0.7137
    --------------------------------------------
      LOOP:  cpu time  321.5591: real time  321.2941

 eigenvalue-minimisations  :   464
 total energy-change (2. order) : 0.6919683E-01  (-0.1010552E-01)
 number of electron      57.9999966 magnetization 
 augmentation part        2.5839508 magnetization 

 Broyden mixing:
  rms(total) = 0.56589E-01    rms(broyden)= 0.56561E-01
  rms(prec ) = 0.65014E-01
  weight for this iteration     100.00

 eigenvalues of (default mixing * dielectric matrix)
  average eigenvalue GAMMA=   1.5160
  2.1960  1.0508  1.0508  1.7665

 Free energy of the ion-electron system (eV)
  ---------------------------------------------------
  alpha Z        PSCENC =         0.51957394
  Ewald energy   TEWEN  =      6094.44673374
  -Hartree energ DENC   =     -8068.52195587
  -exchange      EXHF   =         0.00000000
  -V(xc)+E(xc)   XCENC  =       213.87748884
  PAW double counting   =      4808.93174406    -4820.22124633
  entropy T*S    EENTRO =         0.00000000
  eigenvalues    EBANDS =      -784.48754283
  atomic energy  EATOM  =      2425.98333211
  Solvation  Ediel_sol  =         0.00000000
  ---------------------------------------------------
  free energy    TOTEN  =      -129.47187234 eV

  energy without entropy =     -129.47187234  energy(sigma->0) =     -129.47187234


--------------------------------------------------------------------------------------------------------




----------------------------------------- Iteration    1(  10)  ---------------------------------------


    POTLOK:  cpu time   18.1732: real time   18.1583
    SETDIJ:  cpu time    0.0290: real time    0.0283
     EDDAV:  cpu time  278.2847: real time  278.0537
       DOS:  cpu time    0.0010: real time    0.0005
    CHARGE:  cpu time   16.2335: real time   16.2201
    MIXING:  cpu time    0.7649: real time    0.7638
    --------------------------------------------
      LOOP:  cpu time  313.4873: real time  313.2317

 eigenvalue-minimisations  :   448
 total energy-change (2. order) : 0.1070282E-01  (-0.2452353E-02)
 number of electron      57.9999966 magnetization 
 augmentation part        2.5904455 magnetization 

 Broyden mixing:
  rms(total) = 0.25885E-01    rms(broyden)= 0.25865E-01
  rms(prec ) = 0.35712E-01
  weight for this iteration     100.00

 eigenvalues of (default mixing * dielectric matrix)
  average eigenvalue GAMMA=   1.4931
  2.1842  2.1842  0.9599  0.9599  1.1773

 Free energy of the ion-electron system (eV)
  ---------------------------------------------------
  alpha Z        PSCENC =         0.51957394
  Ewald energy   TEWEN  =      6094.44673374
  -Hartree energ DENC   =     -8073.51779978
  -exchange      EXHF   =         0.00000000
  -V(xc)+E(xc)   XCENC  =       213.88837049
  PAW double counting   =      4800.35454726    -4811.59479090
  entropy T*S    EENTRO =         0.00000000
  eigenvalues    EBANDS =      -779.54113638
  atomic energy  EATOM  =      2425.98333211
  Solvation  Ediel_sol  =         0.00000000
  ---------------------------------------------------
  free energy    TOTEN  =      -129.46116952 eV

  energy without entropy =     -129.46116952  energy(sigma->0) =     -129.46116952


--------------------------------------------------------------------------------------------------------




----------------------------------------- Iteration    1(  11)  ---------------------------------------


    POTLOK:  cpu time   18.1652: real time   18.1514
    SETDIJ:  cpu time    0.0280: real time    0.0283
     EDDAV:  cpu time  278.3067: real time  278.0751
       DOS:  cpu time    0.0010: real time    0.0005
    CHARGE:  cpu time   16.2635: real time   16.2500
    MIXING:  cpu time    0.7959: real time    0.7951
    --------------------------------------------
      LOOP:  cpu time  313.5613: real time  313.3043

 eigenvalue-minimisations  :   448
 total energy-change (2. order) : 0.5443691E-02  (-0.7891796E-03)
 number of electron      57.9999966 magnetization 
 augmentation part        2.5861904 magnetization 

 Broyden mixing:
  rms(total) = 0.15876E-01    rms(broyden)= 0.15870E-01
  rms(prec ) = 0.24486E-01
  weight for this iteration     100.00

 eigenvalues of (default mixing * dielectric matrix)
  average eigenvalue GAMMA=   1.5533
  2.4806  2.4806  0.9477  0.9477  1.2315  1.2315

 Free energy of the ion-electron system (eV)
  ---------------------------------------------------
  alpha Z        PSCENC =         0.51957394
  Ewald energy   TEWEN  =      6094.44673374
  -Hartree energ DENC   =     -8079.54792079
  -exchange      EXHF   =         0.00000000
  -V(xc)+E(xc)   XCENC  =       213.99793019
  PAW double counting   =      4804.31934682    -4815.55755454
  entropy T*S    EENTRO =         0.00000000
  eigenvalues    EBANDS =      -773.61716730
  atomic energy  EATOM  =      2425.98333211
  Solvation  Ediel_sol  =         0.00000000
  ---------------------------------------------------
  free energy    TOTEN  =      -129.45572583 eV

  energy without entropy =     -129.45572583  energy(sigma->0) =     -129.45572583


--------------------------------------------------------------------------------------------------------




----------------------------------------- Iteration    1(  12)  ---------------------------------------


    POTLOK:  cpu time   18.1682: real time   18.1546
    SETDIJ:  cpu time    0.0290: real time    0.0283
     EDDAV:  cpu time  244.6698: real time  244.4660
       DOS:  cpu time    0.0000: real time    0.0005
    CHARGE:  cpu time   16.2625: real time   16.2486
    MIXING:  cpu time    0.8369: real time    0.8360
    --------------------------------------------
      LOOP:  cpu time  279.9684: real time  279.7410

 eigenvalue-minimisations  :   382
 total energy-change (2. order) :-0.9681791E-03  (-0.5643576E-03)
 number of electron      57.9999966 magnetization 
 augmentation part        2.5856185 magnetization 

 Broyden mixing:
  rms(total) = 0.96612E-02    rms(broyden)= 0.96573E-02
  rms(prec ) = 0.15671E-01
  weight for this iteration     100.00

 eigenvalues of (default mixing * dielectric matrix)
  average eigenvalue GAMMA=   1.6248
  2.8741  2.6512  1.4458  1.2331  1.2331  0.9680  0.9680

 Free energy of the ion-electron system (eV)
  ---------------------------------------------------
  alpha Z        PSCENC =         0.51957394
  Ewald energy   TEWEN  =      6094.44673374
  -Hartree energ DENC   =     -8086.25548925
  -exchange      EXHF   =         0.00000000
  -V(xc)+E(xc)   XCENC  =       214.08424214
  PAW double counting   =      4799.40077418    -4810.62900188
  entropy T*S    EENTRO =         0.00000000
  eigenvalues    EBANDS =      -767.00685900
  atomic energy  EATOM  =      2425.98333211
  Solvation  Ediel_sol  =         0.00000000
  ---------------------------------------------------
  free energy    TOTEN  =      -129.45669401 eV

  energy without entropy =     -129.45669401  energy(sigma->0) =     -129.45669401


--------------------------------------------------------------------------------------------------------




----------------------------------------- Iteration    1(  13)  ---------------------------------------


    POTLOK:  cpu time   18.2292: real time   18.2141
    SETDIJ:  cpu time    0.0280: real time    0.0283
     EDDAV:  cpu time  270.1889: real time  269.9642
       DOS:  cpu time    0.0010: real time    0.0005
    CHARGE:  cpu time   16.2745: real time   16.2606
    MIXING:  cpu time    0.8909: real time    0.8899
    --------------------------------------------
      LOOP:  cpu time  305.6135: real time  305.3614

 eigenvalue-minimisations  :   432
 total energy-change (2. order) :-0.6382537E-02  (-0.4665985E-03)
 number of electron      57.9999966 magnetization 
 augmentation part        2.5841540 magnetization 

 Broyden mixing:
  rms(total) = 0.56396E-02    rms(broyden)= 0.56338E-02
  rms(prec ) = 0.90930E-02
  weight for this iteration     100.00

 eigenvalues of (default mixing * dielectric matrix)
  average eigenvalue GAMMA=   1.7201
  4.1256  2.4980  1.6432  1.4713  1.0140  1.0140  0.9972  0.9972

 Free energy of the ion-electron system (eV)
  ---------------------------------------------------
  alpha Z        PSCENC =         0.51957394
  Ewald energy   TEWEN  =      6094.44673374
  -Hartree energ DENC   =     -8092.20423091
  -exchange      EXHF   =         0.00000000
  -V(xc)+E(xc)   XCENC  =       214.15466136
  PAW double counting   =      4793.49330379    -4804.72152194
  entropy T*S    EENTRO =         0.00000000
  eigenvalues    EBANDS =      -761.13492863
  atomic energy  EATOM  =      2425.98333211
  Solvation  Ediel_sol  =         0.00000000
  ---------------------------------------------------
  free energy    TOTEN  =      -129.46307654 eV

  energy without entropy =     -129.46307654  energy(sigma->0) =     -129.46307654


--------------------------------------------------------------------------------------------------------




----------------------------------------- Iteration    1(  14)  ---------------------------------------


    POTLOK:  cpu time   18.2312: real time   18.2173
    SETDIJ:  cpu time    0.0290: real time    0.0286
     EDDAV:  cpu time  269.7210: real time  269.4946
       DOS:  cpu time    0.0000: real time    0.0005
    CHARGE:  cpu time   16.2645: real time   16.2513
    MIXING:  cpu time    0.9469: real time    0.9466
    --------------------------------------------
      LOOP:  cpu time  305.1936: real time  304.9428

 eigenvalue-minimisations  :   431
 total energy-change (2. order) :-0.6297095E-02  (-0.1611698E-03)
 number of electron      57.9999966 magnetization 
 augmentation part        2.5836640 magnetization 

 Broyden mixing:
  rms(total) = 0.37479E-02    rms(broyden)= 0.37448E-02
  rms(prec ) = 0.57129E-02
  weight for this iteration     100.00

 eigenvalues of (default mixing * dielectric matrix)
  average eigenvalue GAMMA=   1.8152
  4.9905  2.4544  2.0966  1.3256  1.3256  1.1069  1.1069  0.9653  0.9653

 Free energy of the ion-electron system (eV)
  ---------------------------------------------------
  alpha Z        PSCENC =         0.51957394
  Ewald energy   TEWEN  =      6094.44673374
  -Hartree energ DENC   =     -8095.41977333
  -exchange      EXHF   =         0.00000000
  -V(xc)+E(xc)   XCENC  =       214.17416654
  PAW double counting   =      4788.19767921    -4799.42307783
  entropy T*S    EENTRO =         0.00000000
  eigenvalues    EBANDS =      -757.94800803
  atomic energy  EATOM  =      2425.98333211
  Solvation  Ediel_sol  =         0.00000000
  ---------------------------------------------------
  free energy    TOTEN  =      -129.46937364 eV

  energy without entropy =     -129.46937364  energy(sigma->0) =     -129.46937364


--------------------------------------------------------------------------------------------------------




----------------------------------------- Iteration    1(  15)  ---------------------------------------


    POTLOK:  cpu time   18.2782: real time   18.2633
    SETDIJ:  cpu time    0.0280: real time    0.0283
     EDDAV:  cpu time  253.9334: real time  253.7219
       DOS:  cpu time    0.0000: real time    0.0005
    CHARGE:  cpu time   16.2785: real time   16.2647
    MIXING:  cpu time    0.9998: real time    0.9987
    --------------------------------------------
      LOOP:  cpu time  289.5210: real time  289.2811

 eigenvalue-minimisations  :   399
 total energy-change (2. order) :-0.7243512E-02  (-0.6613375E-04)
 number of electron      57.9999966 magnetization 
 augmentation part        2.5834991 magnetization 

 Broyden mixing:
  rms(total) = 0.23065E-02    rms(broyden)= 0.23055E-02
  rms(prec ) = 0.34894E-02
  weight for this iteration     100.00

 eigenvalues of (default mixing * dielectric matrix)
  average eigenvalue GAMMA=   1.9153
  5.6793  2.8268  2.4103  1.7363  1.2779  1.0736  1.0736  1.0929  0.9910  0.9910

 Free energy of the ion-electron system (eV)
  ---------------------------------------------------
  alpha Z        PSCENC =         0.51957394
  Ewald energy   TEWEN  =      6094.44673374
  -Hartree energ DENC   =     -8097.03111927
  -exchange      EXHF   =         0.00000000
  -V(xc)+E(xc)   XCENC  =       214.17416538
  PAW double counting   =      4787.22879281    -4798.45269220
  entropy T*S    EENTRO =         0.00000000
  eigenvalues    EBANDS =      -756.34540367
  atomic energy  EATOM  =      2425.98333211
  Solvation  Ediel_sol  =         0.00000000
  ---------------------------------------------------
  free energy    TOTEN  =      -129.47661715 eV

  energy without entropy =     -129.47661715  energy(sigma->0) =     -129.47661715


--------------------------------------------------------------------------------------------------------




----------------------------------------- Iteration    1(  16)  ---------------------------------------


    POTLOK:  cpu time   18.3082: real time   18.2923
    SETDIJ:  cpu time    0.0280: real time    0.0283
     EDDAV:  cpu time  218.6038: real time  218.4216
       DOS:  cpu time    0.0000: real time    0.0005
    CHARGE:  cpu time   16.2395: real time   16.2259
    MIXING:  cpu time    1.0458: real time    1.0447
    --------------------------------------------
      LOOP:  cpu time  254.2254: real time  254.0162

 eigenvalue-minimisations  :   330
 total energy-change (2. order) :-0.5956190E-02  (-0.4718834E-04)
 number of electron      57.9999966 magnetization 
 augmentation part        2.5835847 magnetization 

 Broyden mixing:
  rms(total) = 0.13514E-02    rms(broyden)= 0.13510E-02
  rms(prec ) = 0.20112E-02
  weight for this iteration     100.00

 eigenvalues of (default mixing * dielectric matrix)
  average eigenvalue GAMMA=   1.9866
  6.4381  3.2459  2.3038  1.9249  1.4059  1.4059  1.0774  0.9865  0.9865  1.0387
  1.0387

 Free energy of the ion-electron system (eV)
  ---------------------------------------------------
  alpha Z        PSCENC =         0.51957394
  Ewald energy   TEWEN  =      6094.44673374
  -Hartree energ DENC   =     -8097.74659114
  -exchange      EXHF   =         0.00000000
  -V(xc)+E(xc)   XCENC  =       214.16540369
  PAW double counting   =      4787.54805941    -4798.77127434
  entropy T*S    EENTRO =         0.00000000
  eigenvalues    EBANDS =      -755.62781076
  atomic energy  EATOM  =      2425.98333211
  Solvation  Ediel_sol  =         0.00000000
  ---------------------------------------------------
  free energy    TOTEN  =      -129.48257334 eV

  energy without entropy =     -129.48257334  energy(sigma->0) =     -129.48257334


--------------------------------------------------------------------------------------------------------




----------------------------------------- Iteration    1(  17)  ---------------------------------------


    POTLOK:  cpu time   18.2212: real time   18.2066
    SETDIJ:  cpu time    0.0290: real time    0.0283
     EDDAV:  cpu time  239.0477: real time  238.8495
       DOS:  cpu time    0.0000: real time    0.0005
    CHARGE:  cpu time   16.3455: real time   16.3321
    MIXING:  cpu time    1.0858: real time    1.0843
    --------------------------------------------
      LOOP:  cpu time  274.7312: real time  274.5048

 eigenvalue-minimisations  :   368
 total energy-change (2. order) :-0.3091235E-02  (-0.1785653E-04)
 number of electron      57.9999966 magnetization 
 augmentation part        2.5834643 magnetization 

 Broyden mixing:
  rms(total) = 0.80773E-03    rms(broyden)= 0.80729E-03
  rms(prec ) = 0.11792E-02
  weight for this iteration     100.00

 eigenvalues of (default mixing * dielectric matrix)
  average eigenvalue GAMMA=   2.0336
  7.1214  3.6377  2.3269  2.3269  1.4940  1.4940  1.0637  1.0637  1.0032  1.0032
  0.9341  0.9341

 Free energy of the ion-electron system (eV)
  ---------------------------------------------------
  alpha Z        PSCENC =         0.51957394
  Ewald energy   TEWEN  =      6094.44673374
  -Hartree energ DENC   =     -8098.12358421
  -exchange      EXHF   =         0.00000000
  -V(xc)+E(xc)   XCENC  =       214.16090464
  PAW double counting   =      4787.42877809    -4798.65214184
  entropy T*S    EENTRO =         0.00000000
  eigenvalues    EBANDS =      -755.24926105
  atomic energy  EATOM  =      2425.98333211
  Solvation  Ediel_sol  =         0.00000000
  ---------------------------------------------------
  free energy    TOTEN  =      -129.48566458 eV

  energy without entropy =     -129.48566458  energy(sigma->0) =     -129.48566458


--------------------------------------------------------------------------------------------------------




----------------------------------------- Iteration    1(  18)  ---------------------------------------


    POTLOK:  cpu time   18.2182: real time   18.2029
    SETDIJ:  cpu time    0.0280: real time    0.0283
     EDDAV:  cpu time  221.6813: real time  221.4970
       DOS:  cpu time    0.0010: real time    0.0005
    CHARGE:  cpu time   16.2945: real time   16.2807
    MIXING:  cpu time    1.1648: real time    1.1637
    --------------------------------------------
      LOOP:  cpu time  257.3879: real time  257.1759

 eigenvalue-minimisations  :   334
 total energy-change (2. order) :-0.1416753E-02  (-0.9582875E-05)
 number of electron      57.9999966 magnetization 
 augmentation part        2.5834254 magnetization 

 Broyden mixing:
  rms(total) = 0.54175E-03    rms(broyden)= 0.54157E-03
  rms(prec ) = 0.77087E-03
  weight for this iteration     100.00

 eigenvalues of (default mixing * dielectric matrix)
  average eigenvalue GAMMA=   2.0793
  7.5820  4.2033  2.3822  2.3822  1.6327  1.4018  1.4018  1.0575  1.0575  0.9635
  0.9635  1.0012  1.0012

 Free energy of the ion-electron system (eV)
  ---------------------------------------------------
  alpha Z        PSCENC =         0.51957394
  Ewald energy   TEWEN  =      6094.44673374
  -Hartree energ DENC   =     -8098.26127641
  -exchange      EXHF   =         0.00000000
  -V(xc)+E(xc)   XCENC  =       214.15864317
  PAW double counting   =      4787.75890496    -4798.98215887
  entropy T*S    EENTRO =         0.00000000
  eigenvalues    EBANDS =      -755.11083398
  atomic energy  EATOM  =      2425.98333211
  Solvation  Ediel_sol  =         0.00000000
  ---------------------------------------------------
  free energy    TOTEN  =      -129.48708133 eV

  energy without entropy =     -129.48708133  energy(sigma->0) =     -129.48708133


--------------------------------------------------------------------------------------------------------




----------------------------------------- Iteration    1(  19)  ---------------------------------------


    POTLOK:  cpu time   18.1742: real time   18.1598
    SETDIJ:  cpu time    0.0280: real time    0.0283
     EDDAV:  cpu time  214.4164: real time  214.2369
       DOS:  cpu time    0.0010: real time    0.0005
    CHARGE:  cpu time   16.2745: real time   16.2613
    MIXING:  cpu time    1.2388: real time    1.2377
    --------------------------------------------
      LOOP:  cpu time  250.1340: real time  249.9275

 eigenvalue-minimisations  :   320
 total energy-change (2. order) :-0.8872927E-03  (-0.4629591E-05)
 number of electron      57.9999966 magnetization 
 augmentation part        2.5834263 magnetization 

 Broyden mixing:
  rms(total) = 0.33108E-03    rms(broyden)= 0.33088E-03
  rms(prec ) = 0.46641E-03
  weight for this iteration     100.00

 eigenvalues of (default mixing * dielectric matrix)
  average eigenvalue GAMMA=   2.1444
  8.1014  4.7816  2.6450  2.6450  1.6999  1.5430  1.5430  1.0807  1.0807  0.9770
  0.9794  0.9794  0.9827  0.9827

 Free energy of the ion-electron system (eV)
  ---------------------------------------------------
  alpha Z        PSCENC =         0.51957394
  Ewald energy   TEWEN  =      6094.44673374
  -Hartree energ DENC   =     -8098.32452389
  -exchange      EXHF   =         0.00000000
  -V(xc)+E(xc)   XCENC  =       214.15751566
  PAW double counting   =      4787.97993401    -4799.20318716
  entropy T*S    EENTRO =         0.00000000
  eigenvalues    EBANDS =      -755.04734703
  atomic energy  EATOM  =      2425.98333211
  Solvation  Ediel_sol  =         0.00000000
  ---------------------------------------------------
  free energy    TOTEN  =      -129.48796862 eV

  energy without entropy =     -129.48796862  energy(sigma->0) =     -129.48796862


--------------------------------------------------------------------------------------------------------




----------------------------------------- Iteration    1(  20)  ---------------------------------------


    POTLOK:  cpu time   18.1812: real time   18.1670
    SETDIJ:  cpu time    0.0280: real time    0.0283
     EDDAV:  cpu time  226.6905: real time  226.5009
       DOS:  cpu time    0.0000: real time    0.0005
    CHARGE:  cpu time   16.2275: real time   16.2138
    MIXING:  cpu time    1.3318: real time    1.3312
    --------------------------------------------
      LOOP:  cpu time  262.4611: real time  262.2451

 eigenvalue-minimisations  :   344
 total energy-change (2. order) :-0.4808475E-03  (-0.2409520E-05)
 number of electron      57.9999966 magnetization 
 augmentation part        2.5834169 magnetization 

 Broyden mixing:
  rms(total) = 0.23115E-03    rms(broyden)= 0.23109E-03
  rms(prec ) = 0.29827E-03
  weight for this iteration     100.00

 eigenvalues of (default mixing * dielectric matrix)
  average eigenvalue GAMMA=   2.1503
  8.2772  5.2160  2.7065  2.5412  2.1856  1.5670  1.2766  1.2766  0.9910  0.9764
  0.9764  1.0891  1.0891  1.0432  1.0432

 Free energy of the ion-electron system (eV)
  ---------------------------------------------------
  alpha Z        PSCENC =         0.51957394
  Ewald energy   TEWEN  =      6094.44673374
  -Hartree energ DENC   =     -8098.35735608
  -exchange      EXHF   =         0.00000000
  -V(xc)+E(xc)   XCENC  =       214.15663602
  PAW double counting   =      4787.68395489    -4798.90716203
  entropy T*S    EENTRO =         0.00000000
  eigenvalues    EBANDS =      -755.01416206
  atomic energy  EATOM  =      2425.98333211
  Solvation  Ediel_sol  =         0.00000000
  ---------------------------------------------------
  free energy    TOTEN  =      -129.48844947 eV

  energy without entropy =     -129.48844947  energy(sigma->0) =     -129.48844947


--------------------------------------------------------------------------------------------------------




----------------------------------------- Iteration    1(  21)  ---------------------------------------


    POTLOK:  cpu time   18.1832: real time   18.1688
    SETDIJ:  cpu time    0.0280: real time    0.0283
     EDDAV:  cpu time  223.2811: real time  223.0950
       DOS:  cpu time    0.0000: real time    0.0005
    CHARGE:  cpu time   16.3565: real time   16.3432
    MIXING:  cpu time    1.3278: real time    1.3262
    --------------------------------------------
      LOOP:  cpu time  259.1786: real time  258.9655

 eigenvalue-minimisations  :   336
 total energy-change (2. order) :-0.1901522E-03  (-0.8209750E-06)
 number of electron      57.9999966 magnetization 
 augmentation part        2.5834034 magnetization 

 Broyden mixing:
  rms(total) = 0.11582E-03    rms(broyden)= 0.11577E-03
  rms(prec ) = 0.16640E-03
  weight for this iteration     100.00

 eigenvalues of (default mixing * dielectric matrix)
  average eigenvalue GAMMA=   2.2223
  8.5033  5.8104  3.4882  2.6085  2.3289  1.5822  1.5822  1.3467  1.1466  1.1466
  1.0244  1.0244  1.0972  0.9394  0.9635  0.9635

 Free energy of the ion-electron system (eV)
  ---------------------------------------------------
  alpha Z        PSCENC =         0.51957394
  Ewald energy   TEWEN  =      6094.44673374
  -Hartree energ DENC   =     -8098.36428376
  -exchange      EXHF   =         0.00000000
  -V(xc)+E(xc)   XCENC  =       214.15635605
  PAW double counting   =      4787.74369424    -4798.96696359
  entropy T*S    EENTRO =         0.00000000
  eigenvalues    EBANDS =      -755.00708235
  atomic energy  EATOM  =      2425.98333211
  Solvation  Ediel_sol  =         0.00000000
  ---------------------------------------------------
  free energy    TOTEN  =      -129.48863962 eV

  energy without entropy =     -129.48863962  energy(sigma->0) =     -129.48863962


--------------------------------------------------------------------------------------------------------




----------------------------------------- Iteration    1(  22)  ---------------------------------------


    POTLOK:  cpu time   18.1202: real time   18.1056
    SETDIJ:  cpu time    0.0280: real time    0.0283
     EDDAV:  cpu time  197.3560: real time  197.1908
       DOS:  cpu time    0.0010: real time    0.0005
    CHARGE:  cpu time   16.3335: real time   16.3204
    MIXING:  cpu time    1.4538: real time    1.4525
    --------------------------------------------
      LOOP:  cpu time  233.2935: real time  233.1011

 eigenvalue-minimisations  :   286
 total energy-change (2. order) :-0.1464858E-03  (-0.4525103E-06)
 number of electron      57.9999966 magnetization 
 augmentation part        2.5834071 magnetization 

 Broyden mixing:
  rms(total) = 0.10919E-03    rms(broyden)= 0.10916E-03
  rms(prec ) = 0.12623E-03
  weight for this iteration     100.00

 eigenvalues of (default mixing * dielectric matrix)
  average eigenvalue GAMMA=   2.2164
  8.5861  6.1438  3.7062  2.4590  2.3588  2.1298  1.5048  1.2953  1.2953  1.0457
  1.0457  1.0845  1.0845  1.0976  0.9610  0.9610  0.9191

 Free energy of the ion-electron system (eV)
  ---------------------------------------------------
  alpha Z        PSCENC =         0.51957394
  Ewald energy   TEWEN  =      6094.44673374
  -Hartree energ DENC   =     -8098.38382343
  -exchange      EXHF   =         0.00000000
  -V(xc)+E(xc)   XCENC  =       214.15617013
  PAW double counting   =      4787.63445790    -4798.85770950
  entropy T*S    EENTRO =         0.00000000
  eigenvalues    EBANDS =      -754.98752100
  atomic energy  EATOM  =      2425.98333211
  Solvation  Ediel_sol  =         0.00000000
  ---------------------------------------------------
  free energy    TOTEN  =      -129.48878611 eV

  energy without entropy =     -129.48878611  energy(sigma->0) =     -129.48878611


--------------------------------------------------------------------------------------------------------




----------------------------------------- Iteration    1(  23)  ---------------------------------------


    POTLOK:  cpu time   18.1452: real time   18.1306
    SETDIJ:  cpu time    0.0280: real time    0.0283
     EDDAV:  cpu time  235.1173: real time  234.9204
       DOS:  cpu time    0.0000: real time    0.0005
    --------------------------------------------
      LOOP:  cpu time  253.2915: real time  253.0828

 eigenvalue-minimisations  :   360
 total energy-change (2. order) :-0.3693321E-04  (-0.1111961E-06)
 number of electron      57.9999966 magnetization 
 augmentation part        2.5834071 magnetization 

 Free energy of the ion-electron system (eV)
  ---------------------------------------------------
  alpha Z        PSCENC =         0.51957394
  Ewald energy   TEWEN  =      6094.44673374
  -Hartree energ DENC   =     -8098.39030329
  -exchange      EXHF   =         0.00000000
  -V(xc)+E(xc)   XCENC  =       214.15612515
  PAW double counting   =      4787.66503517    -4798.88825495
  entropy T*S    EENTRO =         0.00000000
  eigenvalues    EBANDS =      -754.98106491
  atomic energy  EATOM  =      2425.98333211
  Solvation  Ediel_sol  =         0.00000000
  ---------------------------------------------------
  free energy    TOTEN  =      -129.48882304 eV

  energy without entropy =     -129.48882304  energy(sigma->0) =     -129.48882304


--------------------------------------------------------------------------------------------------------




 average (electrostatic) potential at core
  the test charge radii are     0.5201  0.6991  0.7089  0.7215
  (the norm of the test charge is              1.0000)
       1 -42.3007       2 -42.5850       3 -42.5520       4 -44.7270       5 -42.2930
       6 -41.8113       7 -41.8867       8 -41.9744       9 -43.3908      10 -41.7295
      11 -41.7779      12 -41.9941      13 -59.0948      14 -61.4667      15 -59.9666
      16 -58.6024      17 -60.7415      18 -59.1058      19 -74.7470      20 -73.9111
      21 -79.9691      22 -79.2912
 
 
 
 E-fermi :  -4.5097     XC(G=0):  -0.1527     alpha+bet : -0.0465


 k-point     1 :       0.2500    0.2500    0.2500
  band No.  band energies     occupation 
      1     -26.2215      2.00000
      2     -25.5576      2.00000
      3     -23.4098      2.00000
      4     -22.6751      2.00000
      5     -19.5481      2.00000
      6     -18.2452      2.00000
      7     -17.5022      2.00000
      8     -15.7730      2.00000
      9     -14.9149      2.00000
     10     -13.9890      2.00000
     11     -13.1070      2.00000
     12     -12.3645      2.00000
     13     -12.0412      2.00000
     14     -11.3089      2.00000
     15     -11.1373      2.00000
     16     -10.6986      2.00000
     17     -10.2376      2.00000
     18     -10.0704      2.00000
     19      -9.9742      2.00000
     20      -9.4932      2.00000
     21      -9.4110      2.00000
     22      -9.0810      2.00000
     23      -9.0296      2.00000
     24      -8.8512      2.00000
     25      -8.5336      2.00000
     26      -6.8254      2.00000
     27      -6.2283      2.00000
     28      -5.8264      2.00000
     29      -5.4347      2.00000
     30      -1.1315      0.00000
     31      -0.9247      0.00000
     32      -0.4656      0.00000
     33      -0.2681      0.00000
     34      -0.2104      0.00000
     35      -0.1050      0.00000
     36       0.0146      0.00000
     37       0.0988      0.00000
     38       0.1053      0.00000
     39       0.1102      0.00000
     40       0.1572      0.00000
     41       0.1750      0.00000

 k-point     2 :      -0.2500    0.2500    0.2500
  band No.  band energies     occupation 
      1     -26.2215      2.00000
      2     -25.5576      2.00000
      3     -23.4098      2.00000
      4     -22.6751      2.00000
      5     -19.5481      2.00000
      6     -18.2452      2.00000
      7     -17.5022      2.00000
      8     -15.7730      2.00000
      9     -14.9149      2.00000
     10     -13.9890      2.00000
     11     -13.1070      2.00000
     12     -12.3645      2.00000
     13     -12.0412      2.00000
     14     -11.3089      2.00000
     15     -11.1373      2.00000
     16     -10.6987      2.00000
     17     -10.2376      2.00000
     18     -10.0704      2.00000
     19      -9.9742      2.00000
     20      -9.4932      2.00000
     21      -9.4110      2.00000
     22      -9.0809      2.00000
     23      -9.0296      2.00000
     24      -8.8512      2.00000
     25      -8.5336      2.00000
     26      -6.8254      2.00000
     27      -6.2283      2.00000
     28      -5.8264      2.00000
     29      -5.4347      2.00000
     30      -1.1315      0.00000
     31      -0.9247      0.00000
     32      -0.4655      0.00000
     33      -0.2681      0.00000
     34      -0.2104      0.00000
     35      -0.1055      0.00000
     36       0.0199      0.00000
     37       0.0864      0.00000
     38       0.0988      0.00000
     39       0.1185      0.00000
     40       0.1627      0.00000
     41       0.1677      0.00000

 k-point     3 :       0.2500   -0.2500    0.2500
  band No.  band energies     occupation 
      1     -26.2215      2.00000
      2     -25.5576      2.00000
      3     -23.4098      2.00000
      4     -22.6751      2.00000
      5     -19.5481      2.00000
      6     -18.2452      2.00000
      7     -17.5022      2.00000
      8     -15.7730      2.00000
      9     -14.9149      2.00000
[...]
 augmentation part        2.5824766 magnetization 

 Free energy of the ion-electron system (eV)
  ---------------------------------------------------
  alpha Z        PSCENC =         0.51957394
  Ewald energy   TEWEN  =      6081.54994712
  -Hartree energ DENC   =     -8084.66349188
  -exchange      EXHF   =         0.00000000
  -V(xc)+E(xc)   XCENC  =       214.12464685
  PAW double counting   =      4788.70453822    -4799.92280948
  entropy T*S    EENTRO =         0.00000000
  eigenvalues    EBANDS =      -755.82804828
  atomic energy  EATOM  =      2425.98333211
  Solvation  Ediel_sol  =         0.00000000
  ---------------------------------------------------
  free energy    TOTEN  =      -129.53231140 eV

  energy without entropy =     -129.53231140  energy(sigma->0) =     -129.53231140


--------------------------------------------------------------------------------------------------------




 average (electrostatic) potential at core
  the test charge radii are     0.5201  0.6991  0.7089  0.7215
  (the norm of the test charge is              1.0000)
       1 -42.3154       2 -42.5671       3 -42.5384       4 -44.7528       5 -42.3026
       6 -41.8630       7 -41.8931       8 -41.9933       9 -43.4957      10 -41.7699
      11 -41.7906      12 -42.0447      13 -59.0843      14 -61.4361      15 -59.9471
      16 -58.6331      17 -60.7806      18 -59.1589      19 -74.7428      20 -73.9712
      21 -79.9222      22 -79.3535
 
 
 
 E-fermi :  -4.4842     XC(G=0):  -0.1322     alpha+bet : -0.0465


 k-point     1 :       0.2500    0.2500    0.2500
  band No.  band energies     occupation 
      1     -26.1807      2.00000
      2     -25.5850      2.00000
      3     -23.4373      2.00000
      4     -22.7075      2.00000
      5     -19.5835      2.00000
      6     -18.2328      2.00000
      7     -17.5482      2.00000
      8     -15.7764      2.00000
      9     -14.9462      2.00000
     10     -14.0519      2.00000
     11     -13.1288      2.00000
     12     -12.3050      2.00000
     13     -12.0215      2.00000
     14     -11.3119      2.00000
     15     -11.1361      2.00000
     16     -10.7117      2.00000
     17     -10.2437      2.00000
     18     -10.1136      2.00000
     19      -9.9489      2.00000
     20      -9.5310      2.00000
     21      -9.4025      2.00000
     22      -9.1514      2.00000
     23      -9.0773      2.00000
     24      -8.8540      2.00000
     25      -8.5670      2.00000
     26      -6.8214      2.00000
     27      -6.1915      2.00000
     28      -5.8662      2.00000
     29      -5.4811      2.00000
     30      -1.1227      0.00000
     31      -0.8981      0.00000
     32      -0.4564      0.00000
     33      -0.2981      0.00000
     34      -0.2100      0.00000
     35      -0.0869      0.00000
     36       0.0385      0.00000
     37       0.1230      0.00000
     38       0.1272      0.00000
     39       0.1334      0.00000
     40       0.1755      0.00000
     41       0.1937      0.00000

 k-point     2 :      -0.2500    0.2500    0.2500
  band No.  band energies     occupation 
      1     -26.1807      2.00000
      2     -25.5850      2.00000
      3     -23.4373      2.00000
      4     -22.7075      2.00000
      5     -19.5835      2.00000
      6     -18.2328      2.00000
      7     -17.5482      2.00000
      8     -15.7764      2.00000
      9     -14.9462      2.00000
     10     -14.0519      2.00000
     11     -13.1288      2.00000
     12     -12.3050      2.00000
     13     -12.0215      2.00000
     14     -11.3119      2.00000
     15     -11.1361      2.00000
     16     -10.7117      2.00000
     17     -10.2437      2.00000
     18     -10.1136      2.00000
     19      -9.9489      2.00000
     20      -9.5310      2.00000
     21      -9.4025      2.00000
     22      -9.1514      2.00000
     23      -9.0773      2.00000
     24      -8.8540      2.00000
     25      -8.5670      2.00000
     26      -6.8214      2.00000
     27      -6.1915      2.00000
     28      -5.8661      2.00000
     29      -5.4811      2.00000
     30      -1.1227      0.00000
     31      -0.8981      0.00000
     32      -0.4564      0.00000
     33      -0.2981      0.00000
     34      -0.2100      0.00000
     35      -0.0873      0.00000
     36       0.0440      0.00000
     37       0.1083      0.00000
     38       0.1215      0.00000
     39       0.1419      0.00000
     40       0.1844      0.00000
     41       0.1902      0.00000

 k-point     3 :       0.2500   -0.2500    0.2500
  band No.  band energies     occupation 
      1     -26.1807      2.00000
      2     -25.5850      2.00000
      3     -23.4373      2.00000
      4     -22.7075      2.00000
      5     -19.5835      2.00000
      6     -18.2328      2.00000
      7     -17.5482      2.00000
      8     -15.7764      2.00000
      9     -14.9462      2.00000
     10     -14.0519      2.00000
     11     -13.1288      2.00000
     12     -12.3050      2.00000
     13     -12.0215      2.00000
     14     -11.3119      2.00000
     15     -11.1361      2.00000
     16     -10.7117      2.00000
     17     -10.2437      2.00000
     18     -10.1136      2.00000
     19      -9.9489      2.00000
     20      -9.5310      2.00000
     21      -9.4025      2.00000
     22      -9.1514      2.00000
     23      -9.0773      2.00000
     24      -8.8540      2.00000
     25      -8.5670      2.00000
     26      -6.8214      2.00000
     27      -6.1915      2.00000
     28      -5.8662      2.00000
     29      -5.4811      2.00000
     30      -1.1227      0.00000
     31      -0.8981      0.00000
     32      -0.4564      0.00000
     33      -0.2981      0.00000
     34      -0.2101      0.00000
     35      -0.0868      0.00000
     36       0.0427      0.00000
     37       0.1038      0.00000
     38       0.1299      0.00000
     39       0.1384      0.00000
     40       0.1829      0.00000
     41       0.1954      0.00000

 k-point     4 :      -0.2500   -0.2500    0.2500
  band No.  band energies     occupation 
      1     -26.1807      2.00000
      2     -25.5850      2.00000
      3     -23.4373      2.00000
      4     -22.7075      2.00000
      5     -19.5835      2.00000
      6     -18.2328      2.00000
      7     -17.5482      2.00000
      8     -15.7764      2.00000
      9     -14.9462      2.00000
     10     -14.0519      2.00000
     11     -13.1288      2.00000
     12     -12.3050      2.00000
     13     -12.0215      2.00000
     14     -11.3119      2.00000
     15     -11.1361      2.00000
     16     -10.7117      2.00000
     17     -10.2437      2.00000
     18     -10.1136      2.00000
     19      -9.9489      2.00000
     20      -9.5310      2.00000
     21      -9.4025      2.00000
     22      -9.1514      2.00000
     23      -9.0773      2.00000
     24      -8.8540      2.00000
     25      -8.5670      2.00000
     26      -6.8214      2.00000
     27      -6.1915      2.00000
     28      -5.8662      2.00000
     29      -5.4811      2.00000
     30      -1.1227      0.00000
     31      -0.8981      0.00000
     32      -0.4564      0.00000
     33      -0.2981      0.00000
     34      -0.2100      0.00000
     35      -0.0873      0.00000
     36       0.0448      0.00000
     37       0.1062      0.00000
     38       0.1301      0.00000
     39       0.1329      0.00000
     40       0.1790      0.00000
     41       0.1989      0.00000


--------------------------------------------------------------------------------------------------------


 soft charge-density along one line, spin component           1
         0         1         2         3         4         5         6         7         8         9
 total charge-density along one line
 
 pseudopotential strength for first ion, spin component:           1
 -2.352  -4.055   0.002   0.000  -0.001
 -4.055  -6.905   0.005   0.000  -0.002
  0.002   0.005  -0.332   0.000  -0.002
  0.000   0.000   0.000  -0.336   0.000
 -0.001  -0.002  -0.002   0.000  -0.336
 total augmentation occupancy for first ion, spin component:           1
  3.530  -0.636  -0.420   0.001   0.139
 -0.636   0.129   0.077   0.000  -0.025
 -0.420   0.077   0.051   0.000  -0.014
  0.001   0.000   0.000   0.009   0.000
  0.139  -0.025  -0.014   0.000   0.013


------------------------ aborting loop because EDIFF is reached ----------------------------------------


    CHARGE:  cpu time   16.2835: real time   16.2683
    FORLOC:  cpu time    5.8001: real time    5.7964
    FORNL :  cpu time   60.0459: real time   59.9943
    STRESS:  cpu time  181.9503: real time  181.7982
    FORCOR:  cpu time   23.5114: real time   23.4918
    FORHAR:  cpu time   10.4614: real time   10.4532
    MIXING:  cpu time    0.7489: real time    0.7483
    OFIELD:  cpu time    0.0000: real time    0.0000

  FORCE on cell =-STRESS in cart. coord.  units (eV):
  Direction    XX          YY          ZZ          XY          YZ          ZX
  --------------------------------------------------------------------------------------
  Alpha Z     0.51957     0.51957     0.51957
  Ewald    2836.13235  2574.60104   670.81525  -183.88294   -37.05725  -822.94971
  Hartree  3400.89231  3039.62418  1644.14636  -146.66386  -119.59730  -680.69724
  E(xc)    -230.13411  -229.49751  -231.54518    -0.21354     0.68661    -0.60026
  Local   -6846.32848 -6203.45667 -2939.67870   326.93443   184.62823  1495.64737
  n-local  -132.87254  -134.14569  -133.01696     0.47788    -2.26897     0.81560
  augment    14.66807    14.32095    14.37690    -0.10400    -0.97620     0.00402
  Kinetic   953.42777   934.60010   970.68347     3.40696   -25.23609     7.68944
  Fock        0.00000     0.00000     0.00000     0.00000     0.00000     0.00000
  -------------------------------------------------------------------------------------
  Total      -3.69505    -3.43402    -3.69929    -0.04507     0.17904    -0.09078
  in kB      -0.21926    -0.20377    -0.21952    -0.00267     0.01062    -0.00539
  external pressure =       -0.21 kB  Pullay stress =        0.00 kB


 VOLUME and BASIS-vectors are now :
 -----------------------------------------------------------------------------
  energy-cutoff  :      400.00
  volume of cell :    27000.00
      direct lattice vectors                 reciprocal lattice vectors
    30.000000000  0.000000000  0.000000000     0.033333333  0.000000000  0.000000000
     0.000000000 30.000000000  0.000000000     0.000000000  0.033333333  0.000000000
     0.000000000  0.000000000 30.000000000     0.000000000  0.000000000  0.033333333

  length of vectors
    30.000000000 30.000000000 30.000000000     0.033333333  0.033333333  0.033333333


 FORCES acting on ions
    electron-ion (+dipol)            ewald-force                    non-local-force                 convergence-correction
 -----------------------------------------------------------------------------------------------
   0.566E+02 -.653E+02 0.458E+01   -.584E+02 0.707E+02 -.460E+01   0.179E+01 -.538E+01 0.930E-02   0.609E-04 0.213E-04 0.231E-04
   0.524E+02 0.217E+02 0.619E+02   -.536E+02 -.240E+02 -.667E+02   0.127E+01 0.229E+01 0.482E+01   0.165E-04 0.565E-04 0.453E-04
   0.673E+02 0.281E+02 -.458E+02   -.701E+02 -.308E+02 0.497E+02   0.276E+01 0.266E+01 -.391E+01   0.373E-04 0.523E-04 -.178E-05
   0.648E+02 0.808E+02 0.481E+02   -.685E+02 -.862E+02 -.516E+02   0.373E+01 0.539E+01 0.344E+01   -.307E-04 0.885E-04 0.550E-04
   -.249E+02 -.100E+02 -.955E+02   0.258E+02 0.123E+02 0.101E+03   -.854E+00 -.232E+01 -.508E+01   -.569E-04 0.114E-03 0.551E-04
   -.658E+02 0.525E+02 -.309E+02   0.711E+02 -.537E+02 0.322E+02   -.535E+01 0.123E+01 -.123E+01   -.594E-04 0.116E-04 0.684E-04
   0.914E+01 0.714E+02 0.518E+02   -.993E+01 -.737E+02 -.567E+02   0.798E+00 0.232E+01 0.494E+01   -.719E-04 0.150E-04 0.695E-04
   0.319E+02 0.630E+02 -.549E+02   -.352E+02 -.653E+02 0.587E+02   0.328E+01 0.233E+01 -.374E+01   -.391E-04 0.332E-04 0.333E-04
   0.234E+02 -.728E+02 -.368E+02   -.285E+02 0.759E+02 0.409E+02   0.509E+01 -.312E+01 -.410E+01   -.889E-04 0.110E-03 0.803E-04
   -.846E+02 -.497E+01 0.222E+02   0.898E+02 0.260E+01 -.226E+02   -.516E+01 0.237E+01 0.419E+00   0.396E-05 0.139E-03 0.141E-04
   0.653E+01 -.286E+02 0.812E+02   -.860E+01 0.287E+02 -.863E+02   0.208E+01 -.168E+00 0.510E+01   -.263E-04 0.120E-03 -.395E-05
   -.251E+02 -.837E+02 -.723E+01   0.256E+02 0.890E+02 0.915E+01   -.496E+00 -.527E+01 -.192E+01   -.123E-04 0.101E-03 0.207E-04
   0.224E+03 -.221E+02 0.243E+02   -.225E+03 0.231E+02 -.244E+02   0.773E+00 -.101E+01 0.174E+00   0.127E-03 0.192E-03 0.880E-04
   0.182E+03 -.106E+02 0.278E+00   -.187E+03 0.114E+02 -.112E+01   0.493E+01 -.703E+00 0.852E+00   -.570E-04 0.359E-03 0.141E-03
   -.467E+02 0.838E+02 -.117E+03   0.522E+02 -.851E+02 0.119E+03   -.551E+01 0.128E+01 -.157E+01   -.383E-03 0.327E-03 0.249E-03
   -.281E+02 0.228E+03 -.631E+02   0.288E+02 -.229E+03 0.630E+02   -.641E+00 0.110E+01 0.475E-01   -.281E-03 0.168E-03 0.204E-03
   -.411E+02 0.187E+02 -.172E+02   0.381E+02 -.208E+02 0.197E+02   0.293E+01 0.214E+01 -.254E+01   -.258E-03 0.522E-03 0.239E-03
   -.128E+03 -.169E+03 0.120E+03   0.132E+03 0.171E+03 -.124E+03   -.335E+01 -.238E+01 0.344E+01   0.271E-04 0.542E-03 0.131E-04
   0.142E+03 0.157E+03 0.492E+02   -.139E+03 -.158E+03 -.497E+02   -.249E+01 0.277E+00 0.443E+00   -.292E-03 0.317E-03 0.162E-03
   -.629E+02 -.203E+03 -.758E+01   0.634E+02 0.206E+03 0.103E+02   -.525E+00 -.301E+01 -.277E+01   -.213E-03 0.492E-03 0.244E-03
   0.124E+02 -.349E+03 -.229E+03   0.851E+01 0.390E+03 0.252E+03   -.209E+02 -.413E+02 -.230E+02   -.230E-03 0.316E-03 0.118E-03
   -.315E+03 0.225E+03 0.238E+03   0.349E+03 -.254E+03 -.267E+03   -.338E+02 0.293E+02 0.290E+02   0.153E-03 0.357E-03 -.509E-04
 -----------------------------------------------------------------------------------------------
   0.497E+02 0.120E+02 -.280E+01   -.114E-12 0.568E-13 0.568E-13   -.497E+02 -.120E+02 0.278E+01   -.168E-02 0.445E-02 0.187E-02
 
 
 POSITION                                       TOTAL-FORCE (eV/Angst)
 -----------------------------------------------------------------------------------
     11.53968     16.59837     15.26654         0.005360      0.001847     -0.010691
     11.65048     15.08625     14.30954        -0.002758     -0.006781      0.002432
     11.34162     15.01638     16.06061        -0.002307      0.009987      0.003369
     13.50849     13.65247     14.77415         0.000263     -0.000195     -0.009317
     15.58004     14.55084     16.60153        -0.001145      0.004355     -0.003737
     16.66136     12.36059     15.92379         0.001538      0.003719      0.010347
     15.43152     12.13868     14.68131         0.007049     -0.009520      0.006510
     14.95452     12.13903     16.41272         0.001105      0.003328      0.006662
     15.64122     16.55875     15.18313         0.004790      0.004780      0.010223
     18.18709     16.44982     13.63535         0.004631      0.001659      0.001990
     16.76196     16.93483     12.68919         0.004781      0.008741     -0.000439
     17.27074     17.92215     14.09180         0.001933      0.001001      0.006420
     11.88735     15.55969     15.27361        -0.001024     -0.000491     -0.002969
     13.37157     15.53746     15.57448         0.008757      0.016887      0.010895
     15.41667     14.09855     15.60812        -0.000734     -0.002640     -0.003281
     15.62128     12.59260     15.66550        -0.000945     -0.000394      0.006066
     16.42706     14.75876     14.62751        -0.037507      0.031549      0.015030
     17.18716     16.89810     13.70646         0.001097      0.003882      0.003922
     14.02539     14.39084     15.24488        -0.002730     -0.009052     -0.004014
     16.36606     16.11231     14.60701         0.005298     -0.012869     -0.007018
     13.95521     16.49803     16.11035        -0.009091     -0.023391      0.002905
     17.21785     14.09055     13.95087         0.011640     -0.026403     -0.045307
 -----------------------------------------------------------------------------------
    total drift:                                0.013705      0.006367     -0.018102


--------------------------------------------------------------------------------------------------------



  FREE ENERGIE OF THE ION-ELECTRON SYSTEM (eV)
  ---------------------------------------------------
  free  energy   TOTEN  =      -129.53231140 eV

  energy  without entropy=     -129.53231140  energy(sigma->0) =     -129.53231140
 
 d Force = 0.6919153E-04[ 0.475E-04, 0.908E-04]  d Energy = 0.7071232E-04-0.152E-05
 d Force = 0.8266267E-01[ 0.826E-01, 0.828E-01]  d Ewald  = 0.8266264E-01 0.237E-07


--------------------------------------------------------------------------------------------------------


    POTLOK:  cpu time   21.0678: real time   21.0501


--------------------------------------------------------------------------------------------------------


 NEB: the previous image is higher in energy: F
 NEB: the next image is higher in energy    : T
 NEB: only next energy greater

 NEB: Tangent
 ----------------------------------------------
     -0.04399     -0.04034     -0.07311
      0.00355     -0.01138     -0.11122
     -0.02723     -0.06474     -0.12027
      0.00960      0.02536     -0.12667
     -0.09736     -0.17559      0.02709
     -0.06121     -0.08443     -0.21008
     -0.01701      0.09706     -0.26806
     -0.08306     -0.12013     -0.30582
     -0.08153      0.00158      0.04303
      0.07147      0.08045      0.32368
      0.17310      0.13146      0.21049
      0.02640      0.06034      0.29764
     -0.02356     -0.03315     -0.09478
     -0.03094     -0.01681     -0.05866
     -0.02958     -0.03945     -0.03174
     -0.04835     -0.03823     -0.21201
      0.06595      0.04237      0.14605
      0.06936      0.07965      0.24401
     -0.00222      0.01045     -0.09214
     -0.01462      0.03401      0.11125
     -0.06696     -0.03013     -0.00165
      0.21139      0.09391      0.30606

 NEB: forces: par spring, perp REAL, dneb     0.054053    0.089143    0.000000
 NEB: distance to prev, next image, angle between     1.151679    1.162490  161.148957
 NEB: projections on to tangent (spring, REAL)     0.054053   -0.016183

 stress matrix after NEB project (eV)
     -3.69505     -0.04507     -0.09078
     -0.04507     -3.43402      0.17904
     -0.09078      0.17904     -3.69929
  FORCES: max atom, RMS     0.053965    0.022226
  FORCE total and by dimension    0.104251    0.034525
  Stress total and by dimension    6.262216    3.699293
 OPT: skip step - force has converged


--------------------------------------------------------------------------------------------------------


  
 reached required accuracy - stopping structural energy minimisation
     LOOP+:  cpu time 1818.2476: real time 1816.8343
    4ORBIT:  cpu time    0.0000: real time    0.0000

 total amount of memory used by VASP on root node  4333708. kBytes
========================================================================

   base      :      30000. kBytes
   nonlr-proj:       2403. kBytes
   fftplans  :     924480. kBytes
   grid      :    2089440. kBytes
   one-center:         67. kBytes
   wavefun   :    1287318. kBytes
 
  
  
 General timing and accounting informations for this job:
 ========================================================
  
                  Total CPU time used (sec):   123718.078
                            User time (sec):   122947.487
                          System time (sec):      770.589
                         Elapsed time (sec):   123693.206
  
                   Maximum memory used (kb):     5900236.
                   Average memory used (kb):           0.
  
                          Minor page faults:    181698730
                          Major page faults:            3
                 Voluntary context switches:         8024
