unknown system                          
           1
    30.000000    0.000000    0.000000
     0.000000   30.000000    0.000000
     0.000000    0.000000   30.000000
   H    C    N    O 
  12   6   2   2
Direct configuration=     1
   0.38422690  0.55400659  0.51171295
   0.38588899  0.50485488  0.47779528
   0.37987200  0.50024077  0.53658634
   0.44976071  0.45453457  0.49423713
   0.51749198  0.48450907  0.55523993
   0.55715590  0.41365366  0.52956695
   0.51471048  0.40503746  0.49019949
   0.50159157  0.40374239  0.54858371
   0.52214679  0.55261428  0.50624362
   0.60472857  0.54672316  0.45064869
   0.55503418  0.56077115  0.42174748
   0.57530378  0.59653819  0.46492104
   0.39602951  0.51946559  0.50983959
   0.44600277  0.51876757  0.51737320
   0.51373759  0.47023029  0.52153936
   0.52179809  0.42011551  0.52282962
   0.54827043  0.49227416  0.48978879
   0.57164192  0.56170062  0.45455163
   0.46759027  0.47993658  0.50786976
   0.54675368  0.53730147  0.48800164
   0.46585800  0.55172088  0.53294738
   0.57453148  0.46940624  0.46768868
Direct configuration=     2
   0.38425159  0.55397418  0.51168857
   0.38592579  0.50482583  0.47776099
   0.37983032  0.50023028  0.53656659
   0.44979512  0.45453964  0.49422676
   0.51754021  0.48452685  0.55520674
   0.55712886  0.41364425  0.52955090
   0.51469256  0.40503314  0.49013420
   0.50152390  0.40374290  0.54855136
   0.52209115  0.55263684  0.50625336
   0.60478574  0.54672170  0.45069189
   0.55504138  0.56079100  0.42177020
   0.57529615  0.59657291  0.46498972
   0.39605131  0.51944416  0.50984913
   0.44599553  0.51877891  0.51736666
   0.51373318  0.47021151  0.52156661
   0.52176389  0.42012837  0.52281426
   0.54828713  0.49223817  0.48973094
   0.57170415  0.56174546  0.45461948
   0.46752162  0.47994061  0.50786064
   0.54670516  0.53732316  0.48802084
   0.46586018  0.55171595  0.53301491
   0.57460096  0.46937976  0.46767825
Direct configuration=     3
   0.38428451  0.55393247  0.51165323
   0.38598543  0.50478943  0.47772702
   0.37977216  0.50021478  0.53653919
   0.44981780  0.45451956  0.49419565
   0.51761078  0.48456100  0.55517179
   0.55708402  0.41363103  0.52953025
   0.51466959  0.40503729  0.49006084
   0.50142879  0.40374567  0.54850286
   0.52200433  0.55266844  0.50627043
   0.60486311  0.54672327  0.45075834
   0.55506987  0.56082414  0.42182771
   0.57529016  0.59663147  0.46509071
   0.39606674  0.51941025  0.50984059
   0.44598831  0.51880650  0.51737710
   0.51371205  0.47019362  0.52155686
   0.52171066  0.42012322  0.52278319
   0.54829088  0.49222345  0.48967131
   0.57176290  0.56179165  0.45469323
   0.46749628  0.47996795  0.50787931
   0.54666961  0.53731206  0.48802269
   0.46585353  0.55168887  0.53310177
   0.57469473  0.46935008  0.46766002
Direct configuration=     4
   0.38432052  0.55388787  0.51160714
   0.38606840  0.50474762  0.47769840
   0.37970312  0.50019627  0.53650320
   0.44983327  0.45449154  0.49415243
   0.51770190  0.48461004  0.55513304
   0.55701743  0.41361464  0.52950826
   0.51464293  0.40505314  0.48999304
   0.50131076  0.40375200  0.54844010
   0.52190946  0.55268998  0.50627861
   0.60494591  0.54673493  0.45084741
   0.55512668  0.56087239  0.42192426
   0.57528776  0.59670575  0.46521852
   0.39606827  0.51936549  0.50981100
   0.44597694  0.51882766  0.51741009
   0.51368393  0.47019021  0.52149978
   0.52164168  0.42009320  0.52273436
   0.54829507  0.49220948  0.48960762
   0.57181161  0.56182952  0.45476171
   0.46751756  0.47999414  0.50791837
   0.54664021  0.53728282  0.48800966
   0.46584257  0.55165518  0.53320862
   0.57478068  0.46934313  0.46764975
Direct configuration=     5
   0.38435398  0.55384563  0.51154949
   0.38617071  0.50469692  0.47766761
   0.37962862  0.50017728  0.53645568
   0.44986272  0.45449192  0.49411667
   0.51781096  0.48466504  0.55507334
   0.55692744  0.41359369  0.52948824
   0.51461075  0.40507566  0.48993083
   0.50117272  0.40376212  0.54836552
   0.52183703  0.55267784  0.50625700
   0.60501770  0.54676455  0.45095751
   0.55520860  0.56093638  0.42204398
   0.57528879  0.59677385  0.46536393
   0.39605984  0.51931684  0.50977542
   0.44596558  0.51881464  0.51746675
   0.51367416  0.47020437  0.52141963
   0.52156327  0.42005339  0.52267474
   0.54830472  0.49217873  0.48954066
   0.57186176  0.56186478  0.45483737
   0.46754023  0.47998500  0.50794997
   0.54659563  0.53726829  0.48799454
   0.46582916  0.55163213  0.53333668
   0.57484283  0.46936887  0.46765133
Direct configuration=     6
   0.38438088  0.55380944  0.51148038
   0.38628551  0.50463303  0.47762470
   0.37955111  0.50015941  0.53639704
   0.44990990  0.45452619  0.49409456
   0.51793475  0.48471948  0.55497660
   0.55681943  0.41356505  0.52947639
   0.51457002  0.40509447  0.48986826
   0.50101920  0.40377800  0.54828498
   0.52179439  0.55262771  0.50620213
   0.60506982  0.54681351  0.45108269
   0.55530500  0.56101454  0.42215765
   0.57529312  0.59681441  0.46551368
   0.39605587  0.51927168  0.50975311
   0.44596726  0.51876898  0.51755181
   0.51369836  0.47021798  0.52134912
   0.52148275  0.42003177  0.52262115
   0.54829547  0.49216090  0.48948614
   0.57192014  0.56191122  0.45494107
   0.46753615  0.47995290  0.50796760
   0.54654053  0.53726806  0.48797356
   0.46580202  0.55160464  0.53347564
   0.57489608  0.46940553  0.46764017
Direct configuration=     7
   0.38440136  0.55377749  0.51139083
   0.38642357  0.50454703  0.47756323
   0.37946008  0.50013961  0.53632408
   0.44995831  0.45456782  0.49407009
   0.51808564  0.48477873  0.55482777
   0.55668994  0.41351824  0.52948013
   0.51451300  0.40510479  0.48979694
   0.50083625  0.40380705  0.54819289
   0.52176047  0.55254664  0.50612065
   0.60510823  0.54688567  0.45123526
   0.55542367  0.56111767  0.42225631
   0.57530360  0.59682529  0.46567979
   0.39607173  0.51922886  0.50974888
   0.44597861  0.51870208  0.51767914
   0.51375003  0.47020933  0.52129254
   0.52139754  0.42004658  0.52258061
   0.54825929  0.49218120  0.48943762
   0.57198187  0.56197786  0.45508813
   0.46753115  0.47994488  0.50799818
   0.54649757  0.53725537  0.48792671
   0.46574840  0.55154117  0.53363117
   0.57494807  0.46944657  0.46759920
Direct configuration=     8
   0.38441653  0.55374718  0.51127717
   0.38659488  0.50444431  0.47750190
   0.37934838  0.50011462  0.53624252
   0.44998596  0.45458901  0.49402949
   0.51826859  0.48485136  0.55464742
   0.55655156  0.41344135  0.52951267
   0.51443877  0.40511149  0.48973349
   0.50062503  0.40386331  0.54808885
   0.52170863  0.55245613  0.50603119
   0.60514435  0.54697812  0.45141937
   0.55557644  0.56125501  0.42233672
   0.57532472  0.59683076  0.46587711
   0.39611230  0.51918029  0.50974356
   0.44595453  0.51862527  0.51783896
   0.51379174  0.47018477  0.52123112
   0.52130545  0.42008146  0.52254587
   0.54825009  0.49219008  0.48934559
   0.57202572  0.56204346  0.45523550
   0.46757961  0.47997738  0.50806834
   0.54648035  0.53722284  0.48785229
   0.46568727  0.55144667  0.53382064
   0.57495816  0.46951616  0.46754222
Direct configuration=     9
   0.38443520  0.55370166  0.51113625
   0.38681123  0.50433510  0.47746687
   0.37921371  0.50008577  0.53615208
   0.45002953  0.45463875  0.49400033
   0.51848848  0.48494489  0.55447964
   0.55641396  0.41332534  0.52958296
   0.51435063  0.40512799  0.48970133
   0.50038841  0.40395949  0.54797147
   0.52163385  0.55236473  0.50593994
   0.60519778  0.54708615  0.45163708
   0.55577349  0.56143657  0.42239628
   0.57535782  0.59686490  0.46612722
   0.39613987  0.51911652  0.50971134
   0.44589499  0.51855858  0.51801730
   0.51381180  0.47019564  0.52113801
   0.52120496  0.42008042  0.52249480
   0.54825050  0.49216539  0.48922463
   0.57205292  0.56209014  0.45531898
   0.46762575  0.47994788  0.50813098
   0.54644355  0.53720367  0.48779772
   0.46564162  0.55135777  0.53407652
   0.57496973  0.46956490  0.46742220
Direct configuration=    10
   0.38446120  0.55362193  0.51096233
   0.38706943  0.50420933  0.47743781
   0.37905768  0.50005998  0.53604211
   0.45008658  0.45469449  0.49397139
   0.51873637  0.48505428  0.55434504
   0.55626771  0.41316149  0.52969127
   0.51424519  0.40514653  0.48967776
   0.50011808  0.40409535  0.54784769
   0.52151741  0.55229042  0.50586526
   0.60528499  0.54720115  0.45188728
   0.55599803  0.56166683  0.42238820
   0.57539620  0.59690331  0.46642582
   0.39611971  0.51904879  0.50968454
   0.44590650  0.51850607  0.51820518
   0.51384088  0.47022537  0.52101941
   0.52112903  0.42004838  0.52244473
   0.54822034  0.49213856  0.48909002
   0.57210046  0.56218199  0.45539145
   0.46758847  0.47993050  0.50819015
   0.54637932  0.53718010  0.48776024
   0.46558107  0.55124306  0.53439704
   0.57502595  0.46954560  0.46720128
Direct configuration=    11
   0.38447509  0.55353599  0.51075366
   0.38734878  0.50405000  0.47737154
   0.37887150  0.50003114  0.53592530
   0.45009814  0.45468964  0.49389755
   0.51898411  0.48515111  0.55420695
   0.55612195  0.41294144  0.52983410
   0.51412587  0.40514517  0.48962178
   0.49980889  0.40426101  0.54772962
   0.52135841  0.55224000  0.50581926
   0.60539696  0.54732350  0.45216483
   0.55624743  0.56194709  0.42231202
   0.57543217  0.59693575  0.46676208
   0.39613728  0.51897640  0.50969331
   0.44586587  0.51843974  0.51836312
   0.51389063  0.47021377  0.52093799
   0.52106899  0.42005617  0.52242085
   0.54829298  0.49201814  0.48880635
   0.57218291  0.56232631  0.45552603
   0.46759315  0.47999548  0.50829440
   0.54631672  0.53715316  0.48767154
   0.46554526  0.55113759  0.53480350
   0.57496841  0.46958636  0.46701256
Direct configuration=    12
   0.38446708  0.55346224  0.51051664
   0.38764319  0.50387506  0.47730209
   0.37865735  0.49999271  0.53581841
   0.45015642  0.45477407  0.49385111
   0.51922074  0.48521626  0.55404348
   0.55597850  0.41267173  0.53000145
   0.51401581  0.40514183  0.48956550
   0.49947804  0.40444357  0.54760919
   0.52124170  0.55214101  0.50575196
   0.60551833  0.54747243  0.45247204
   0.55658216  0.56229021  0.42229334
   0.57547068  0.59702113  0.46715109
   0.39618490  0.51887677  0.50964817
   0.44584931  0.51853278  0.51861739
   0.51399494  0.47020507  0.52088572
   0.52095544  0.42005407  0.52238727
   0.54805699  0.49219666  0.48872367
   0.57225312  0.56243633  0.45562526
   0.46760173  0.47987217  0.50831361
   0.54621519  0.53711429  0.48754161
   0.46545747  0.55095485  0.53522078
   0.57513351  0.46941132  0.46659120
Direct configuration=    13
   0.38446280  0.55345766  0.51051225
   0.38764781  0.50387166  0.47730365
   0.37866138  0.49999812  0.53581599
   0.45014273  0.45475497  0.49383969
   0.51921793  0.48521594  0.55405221
   0.55596540  0.41266766  0.53000674
   0.51402126  0.40514259  0.48957716
   0.49947420  0.40444923  0.54762015
   0.52125989  0.55213685  0.50574362
   0.60551340  0.54747387  0.45246842
   0.55659266  0.56229658  0.42230264
   0.57546633  0.59701615  0.46714831
   0.39617725  0.51888722  0.50965004
   0.44584403  0.51843054  0.51859105
   0.51398288  0.47020870  0.52087027
   0.52097315  0.42004329  0.52238869
   0.54820767  0.49203256  0.48859880
   0.57225944  0.56244196  0.45562244
   0.46761257  0.47994130  0.50834502
   0.54619202  0.53715148  0.48752812
   0.46548507  0.55100091  0.53524925
   0.57497272  0.46953732  0.46669643
Direct configuration=    14
   0.38446189  0.55345716  0.51051086
   0.38764840  0.50387087  0.47730342
   0.37866185  0.49999894  0.53581489
   0.45014326  0.45475616  0.49383912
   0.51921697  0.48521453  0.55405266
   0.55596348  0.41266590  0.53000709
   0.51402230  0.40514277  0.48957759
   0.49947338  0.40444956  0.54762016
   0.52126136  0.55213620  0.50574347
   0.60551347  0.54747489  0.45246970
   0.55659623  0.56229938  0.42230512
   0.57546607  0.59701619  0.46714944
   0.39617636  0.51888720  0.50964907
   0.44584738  0.51842887  0.51859361
   0.51398279  0.47020827  0.52086802
   0.52097298  0.42004155  0.52238858
   0.54820482  0.49203572  0.48860044
   0.57225984  0.56244414  0.45562419
   0.46761386  0.47994283  0.50834524
   0.54619179  0.53714862  0.48752337
   0.46548329  0.55099864  0.53524978
   0.57497084  0.46953817  0.46669513
Direct configuration=    15
   0.38445985  0.55345602  0.51050773
   0.38764948  0.50386925  0.47730236
   0.37866267  0.50000023  0.53581219
   0.45014436  0.45475879  0.49383724
   0.51921445  0.48521065  0.55405360
   0.55595944  0.41266195  0.53000658
   0.51402424  0.40514357  0.48957685
   0.49947131  0.40444953  0.54761848
   0.52126397  0.55213481  0.50574339
   0.60551405  0.54747737  0.45247394
   0.55660409  0.56230556  0.42231112
   0.57546572  0.59701671  0.46715334
   0.39617471  0.51888696  0.50964669
   0.44585324  0.51842557  0.51859812
   0.51398247  0.47020725  0.52086363
   0.52097234  0.42003802  0.52238714
   0.54819989  0.49204174  0.48860426
   0.57226113  0.56244864  0.45562894
   0.46761647  0.47994557  0.50834495
   0.54619096  0.53714355  0.48751495
   0.46547975  0.55099434  0.53525092
   0.57496804  0.46954050  0.46669455
Direct configuration=    16
   0.38445652  0.55345410  0.51050253
   0.38765094  0.50386676  0.47729977
   0.37866364  0.50000157  0.53580736
   0.45014611  0.45476313  0.49383325
   0.51920966  0.48520309  0.55405498
   0.55595320  0.41265538  0.53000388
   0.51402685  0.40514547  0.48957305
   0.49946749  0.40444831  0.54761318
   0.52126740  0.55213255  0.50574360
   0.60551563  0.54748184  0.45248311
   0.55661696  0.56231574  0.42232163
   0.57546546  0.59701832  0.46716200
   0.39617264  0.51888627  0.50964243
   0.44586016  0.51842056  0.51860356
   0.51398178  0.47020547  0.52085749
   0.52097082  0.42003283  0.52238295
   0.54819418  0.49204951  0.48861043
   0.57226397  0.56245542  0.45563804
   0.46762033  0.47994892  0.50834324
   0.54618884  0.53713768  0.48750456
   0.46547473  0.55098865  0.53525297
   0.57496539  0.46954510  0.46669710
Direct configuration=    17
   0.38445175  0.55345130  0.51049493
   0.38765265  0.50386338  0.47729499
   0.37866454  0.50000250  0.53579996
   0.45014855  0.45476938  0.49382640
   0.51920203  0.48519074  0.55405676
   0.55594477  0.41264581  0.52999773
   0.51402988  0.40514884  0.48956433
   0.49946145  0.40444509  0.54760244
   0.52127131  0.55212936  0.50574429
   0.60551873  0.54748876  0.45249897
   0.55663535  0.56233044  0.42233740
   0.57546548  0.59702167  0.46717727
   0.39617061  0.51888489  0.50963594
   0.44586643  0.51841387  0.51860879
   0.51398067  0.47020279  0.52085020
   0.52096802  0.42002626  0.52237472
   0.54818906  0.49205767  0.48861900
   0.57226899  0.56246432  0.45565263
   0.46762528  0.47995219  0.50833921
   0.54618467  0.53713265  0.48749403
   0.46546863  0.55098234  0.53525628
   0.57496401  0.46955257  0.46670503
Direct configuration=    18
   0.38444566  0.55344767  0.51048499
   0.38765461  0.50385905  0.47728797
   0.37866518  0.50000290  0.53579022
   0.45015170  0.45477753  0.49381681
   0.51919167  0.48517366  0.55405873
   0.55593453  0.41263326  0.52998839
   0.51403323  0.40515338  0.48955064
   0.49945315  0.40443995  0.54758654
   0.52127582  0.55212528  0.50574535
   0.60552340  0.54749806  0.45252131
   0.55665895  0.56234960  0.42235776
   0.57546577  0.59702702  0.46719921
   0.39616919  0.51888277  0.50962738
   0.44587064  0.51840568  0.51861326
   0.51397926  0.47019927  0.52084259
   0.52096383  0.42001885  0.52236265
   0.54818512  0.49206498  0.48862902
   0.57227650  0.56247481  0.45567238
   0.46763116  0.47995466  0.50833272
   0.54617772  0.53712977  0.48748413
   0.46546214  0.55097610  0.53526139
   0.57496376  0.46956274  0.46671815
Direct configuration=    19
   0.38443846  0.55344327  0.51047278
   0.38765687  0.50385370  0.47727881
   0.37866541  0.50000274  0.53577846
   0.45015550  0.45478739  0.49380462
   0.51917884  0.48515217  0.55406073
   0.55592289  0.41261782  0.52997635
   0.51403682  0.40515870  0.48953213
   0.49944263  0.40443304  0.54756600
   0.52128090  0.55212055  0.50574680
   0.60552979  0.54750958  0.45254970
   0.55668736  0.56237310  0.42238180
   0.57546632  0.59703459  0.46722766
   0.39616893  0.51887985  0.50961701
   0.44587184  0.51839654  0.51861663
   0.51397772  0.47019498  0.52083550
   0.52095820  0.42001118  0.52234716
   0.54818259  0.49207064  0.48863959
   0.57228650  0.56248636  0.45569669
   0.46763773  0.47995586  0.50832379
   0.54616755  0.53712988  0.48747535
   0.46545575  0.55097026  0.53526873
   0.57496466  0.46957503  0.46673566
Direct configuration=    20
   0.38442945  0.55343749  0.51045668
   0.38765981  0.50384651  0.47726630
   0.37866497  0.50000187  0.53576347
   0.45016027  0.45479980  0.49378817
   0.51916213  0.48512368  0.55406300
   0.55590884  0.41259745  0.52996054
   0.51404097  0.40516499  0.48950631
   0.49942842  0.40442359  0.54753859
   0.52128676  0.55211513  0.50574917
   0.60553909  0.54752468  0.45258760
   0.55672390  0.56240410  0.42241146
   0.57546723  0.59704572  0.46726645
   0.39617033  0.51887566  0.50960369
   0.44586940  0.51838637  0.51861903
   0.51397598  0.47018926  0.52082901
   0.52095034  0.42000294  0.52232667
   0.54818101  0.49207501  0.48865129
   0.57230026  0.56250007  0.45572825
   0.46764541  0.47995568  0.50831134
   0.54615252  0.53713359  0.48746709
   0.46544895  0.55096400  0.53527973
   0.57496749  0.46958995  0.46675858
Direct configuration=    21
   0.38441867  0.55342988  0.51043582
   0.38766380  0.50383690  0.47724997
   0.37866346  0.50000013  0.53574498
   0.45016585  0.45481426  0.49376636
   0.51914125  0.48508743  0.55406587
   0.55589233  0.41257113  0.52994114
   0.51404568  0.40517175  0.48947201
   0.49940970  0.40441139  0.54750376
   0.52129242  0.55211008  0.50575350
   0.60555255  0.54754368  0.45263646
   0.55676987  0.56244431  0.42244618
   0.57546862  0.59706121  0.46731752
   0.39617384  0.51886990  0.50958697
   0.44586337  0.51837677  0.51862052
   0.51397405  0.47018151  0.52082393
   0.52093989  0.41999446  0.52230098
   0.54817929  0.49207934  0.48866389
   0.57231819  0.56251664  0.45576817
   0.46765370  0.47995456  0.50829526
   0.54613227  0.53714053  0.48745907
   0.46544128  0.55095600  0.53529534
   0.57497385  0.46960605  0.46678532
Direct configuration=    22
   0.38440650  0.55341974  0.51040923
   0.38766955  0.50382413  0.47722963
   0.37866043  0.49999747  0.53572290
   0.45017175  0.45482937  0.49373780
   0.51911638  0.48504336  0.55407037
   0.55587333  0.41253785  0.52991904
   0.51405092  0.40517819  0.48942877
   0.49938559  0.40439659  0.54746157
   0.52129567  0.55210767  0.50576176
   0.60557187  0.54756663  0.45269744
   0.55682655  0.56249567  0.42248428
   0.57547069  0.59708165  0.46738258
   0.39617902  0.51886252  0.50956643
   0.44585580  0.51836997  0.51862172
   0.51397172  0.47017105  0.52082055
   0.52092687  0.41998570  0.52227053
   0.54817550  0.49208605  0.48867693
   0.57233996  0.56253760  0.45581685
   0.46766139  0.47995442  0.50827629
   0.54610765  0.53714822  0.48745010
   0.46543161  0.55094369  0.53531657
   0.57498564  0.46962087  0.46681242
Direct configuration=    23
   0.38439374  0.55340621  0.51037591
   0.38767828  0.50380734  0.47720575
   0.37865552  0.49999418  0.53569745
   0.45017728  0.45484302  0.49370129
   0.51908864  0.48499289  0.55407859
   0.55585173  0.41249704  0.52989654
   0.51405674  0.40518319  0.48937798
   0.49935539  0.40438003  0.54741337
   0.52129357  0.55211122  0.50577652
   0.60559883  0.54759323  0.45277078
   0.55689487  0.56256015  0.42252256
   0.57547360  0.59710689  0.46746248
   0.39618424  0.51885372  0.50954209
   0.44585070  0.51836737  0.51862323
   0.51396831  0.47015747  0.52081787
   0.52091192  0.41997539  0.52223659
   0.54816881  0.49209659  0.48868802
   0.57236464  0.56256514  0.45587289
   0.46766624  0.47995830  0.50825635
   0.54608035  0.53715261  0.48743814
   0.46541892  0.55092468  0.53534522
   0.57500266  0.46963230  0.46683500
Direct configuration=    24
   0.38438163  0.55338886  0.51033492
   0.38769189  0.50378552  0.47717989
   0.37864853  0.49999116  0.53566953
   0.45018220  0.45485395  0.49365702
   0.51906062  0.48493960  0.55409334
   0.55582732  0.41244892  0.52987822
   0.51406326  0.40518518  0.48932451
   0.49931875  0.40436378  0.54736287
   0.52128480  0.55212350  0.50579921
   0.60563404  0.54762314  0.45285491
   0.55697526  0.56263953  0.42255583
   0.57547734  0.59713583  0.46755653
   0.39618723  0.51884348  0.50951455
   0.44585060  0.51836647  0.51862459
   0.51396273  0.47014215  0.52081307
   0.52089624  0.41996086  0.52220138
   0.54816219  0.49210613  0.48869003
   0.57239202  0.56260095  0.45593215
   0.46766542  0.47996728  0.50823800
   0.54605017  0.53715209  0.48742149
   0.46540454  0.55090026  0.53538574
   0.57501882  0.46964096  0.46684785
Direct configuration=    25
   0.38437144  0.55336896  0.51028628
   0.38771230  0.50375782  0.47715459
   0.37863973  0.49998973  0.53564116
   0.45018761  0.45486409  0.49360853
   0.51903644  0.48488879  0.55411477
   0.55580048  0.41239543  0.52987070
   0.51407074  0.40518195  0.48927701
   0.49927670  0.40435094  0.54731631
   0.52127389  0.55214283  0.50582680
   0.60567473  0.54765641  0.45294498
   0.55706650  0.56273365  0.42257824
   0.57548169  0.59716614  0.46766089
   0.39618727  0.51883214  0.50948574
   0.44585186  0.51836228  0.51862518
   0.51395493  0.47012895  0.52080462
   0.52087986  0.41993963  0.52216854
   0.54815948  0.49210543  0.48867486
   0.57242219  0.56264316  0.45598638
   0.46765849  0.47997459  0.50822254
   0.54601284  0.53715229  0.48740037
   0.46539314  0.55087644  0.53544376
   0.57502388  0.46964864  0.46684436
Direct configuration=    26
   0.38436382  0.55334953  0.51023080
   0.38774035  0.50372372  0.47713200
   0.37862938  0.49999112  0.53561507
   0.45019421  0.45487606  0.49356009
   0.51902003  0.48484525  0.55413761
   0.55577184  0.41233961  0.52988029
   0.51407908  0.40517071  0.48924356
   0.49923090  0.40434426  0.54728025
   0.52126809  0.55216398  0.50585374
   0.60571575  0.54769357  0.45303473
   0.55716635  0.56284067  0.42258535
   0.57548659  0.59719504  0.46776955
   0.39618702  0.51881959  0.50945774
   0.44585022  0.51835740  0.51862957
   0.51394700  0.47011967  0.52079410
   0.52086275  0.41991329  0.52214391
   0.54815277  0.49209656  0.48864409
   0.57245399  0.56268658  0.45602886
   0.46764973  0.47997125  0.50821095
   0.54596646  0.53715836  0.48737291
   0.46538593  0.55085300  0.53551944
   0.57501455  0.46965166  0.46681292
Direct configuration=    27
   0.38435887  0.55333344  0.51016912
   0.38777622  0.50368248  0.47711322
   0.37861751  0.49999620  0.53559359
   0.45020021  0.45488850  0.49351302
   0.51901418  0.48481221  0.55415311
   0.55574154  0.41228419  0.52991188
   0.51408767  0.40514826  0.48922924
   0.49918236  0.40434529  0.54725989
   0.52127155  0.55218284  0.50587645
   0.60575267  0.54773477  0.45311898
   0.55727302  0.56295845  0.42257481
   0.57549226  0.59721912  0.46787638
   0.39619047  0.51880720  0.50943247
   0.44584796  0.51835723  0.51864604
   0.51394232  0.47011084  0.52078494
   0.52084548  0.41988775  0.52213348
   0.54813049  0.49209102  0.48860308
   0.57248354  0.56272863  0.45605867
   0.46764470  0.47995906  0.50820753
   0.54591694  0.53716582  0.48733148
   0.46537833  0.55082087  0.53560704
   0.57498900  0.46964721  0.46674384
Direct configuration=    28
   0.38435665  0.55332222  0.51010085
   0.38782071  0.50363324  0.47709900
   0.37860450  0.50000626  0.53557759
   0.45020376  0.45489908  0.49346666
   0.51902128  0.48479190  0.55415266
   0.55570895  0.41223134  0.52996899
   0.51409583  0.40511217  0.48923749
   0.49913107  0.40435496  0.54725833
   0.52128688  0.55219688  0.50589252
   0.60578302  0.54777998  0.45319490
   0.55738641  0.56308579  0.42254679
   0.57549922  0.59723501  0.46797731
   0.39619959  0.51879700  0.50941177
   0.44584842  0.51835314  0.51867836
   0.51394400  0.47009753  0.52077912
   0.52082988  0.41986882  0.52214174
   0.54809522  0.49209032  0.48854705
   0.57250550  0.56276944  0.45607767
   0.46764447  0.47994902  0.50821818
   0.54587132  0.53716720  0.48726786
   0.46536814  0.55077624  0.53570375
   0.57493284  0.46964420  0.46664027
Direct configuration=    29
   0.38435776  0.55331554  0.51002413
   0.38787561  0.50357554  0.47709046
   0.37859093  0.50002328  0.53556540
   0.45020819  0.45491298  0.49342208
   0.51904392  0.48478552  0.55413050
   0.55567299  0.41218260  0.53005313
   0.51410321  0.40506251  0.48927073
   0.49907598  0.40437365  0.54727418
   0.52131877  0.55220202  0.50589776
   0.60580587  0.54783042  0.45326392
   0.55750881  0.56322331  0.42250571
   0.57550799  0.59724165  0.46807366
   0.39621383  0.51878908  0.50939499
   0.44584933  0.51832665  0.51872499
   0.51395315  0.47008015  0.52077349
   0.52081643  0.41985650  0.52216874
   0.54805531  0.49208569  0.48846882
   0.57251907  0.56281049  0.45608745
   0.46764361  0.47994203  0.50824265
   0.54582754  0.53716241  0.48718220
   0.46535882  0.55072611  0.53581378
   0.57483079  0.46965387  0.46651051
Direct configuration=    30
   0.38436508  0.55330994  0.50993406
   0.38794350  0.50350863  0.47708785
   0.37857614  0.50004965  0.53555141
   0.45022155  0.45494219  0.49337925
   0.51908513  0.48479331  0.55408510
   0.55563267  0.41213801  0.53016230
   0.51410975  0.40500275  0.48932825
   0.49901414  0.40440028  0.54729758
   0.52136957  0.55219322  0.50588902
   0.60582302  0.54788986  0.45333566
   0.55764611  0.56337529  0.42246179
   0.57551924  0.59724339  0.46817748
   0.39622995  0.51877919  0.50937963
   0.44584906  0.51828620  0.51879096
   0.51396523  0.47006700  0.52075543
   0.52080147  0.41984335  0.52220631
   0.54799026  0.49208660  0.48838599
   0.57253218  0.56285331  0.45609280
   0.46763963  0.47991570  0.50827163
   0.54577588  0.53715671  0.48708449
   0.46534747  0.55066514  0.53593787
   0.57470107  0.46966253  0.46634471
Direct configuration=    31
   0.38438301  0.55329697  0.50982282
   0.38802541  0.50343077  0.47708483
   0.37855354  0.50008367  0.53552779
   0.45023577  0.45497201  0.49331514
   0.51914227  0.48480985  0.55402209
   0.55558595  0.41209412  0.53028252
   0.51411496  0.40493978  0.48938928
   0.49893770  0.40442977  0.54730472
   0.52141600  0.55218213  0.50588146
   0.60584802  0.54796044  0.45343402
   0.55780593  0.56354861  0.42243387
   0.57553357  0.59725253  0.46831686
   0.39624459  0.51876334  0.50935858
   0.44584627  0.51825001  0.51887188
   0.51396299  0.47005907  0.52071095
   0.52078374  0.41982293  0.52223705
   0.54790930  0.49208226  0.48829546
   0.57255740  0.56290354  0.45611780
   0.46764549  0.47988344  0.50830966
   0.54571805  0.53715177  0.48698413
   0.46532805  0.55057768  0.53607576
   0.57456043  0.46966791  0.46616349
Direct configuration=    32
   0.38440967  0.55327405  0.50968814
   0.38811659  0.50334115  0.47706850
   0.37851371  0.50011756  0.53549292
   0.45025074  0.45499713  0.49321652
   0.51920368  0.48482043  0.55394422
   0.55553310  0.41204607  0.53039156
   0.51411853  0.40487754  0.48941577
   0.49884024  0.40445440  0.54727530
   0.52143164  0.55218553  0.50589316
   0.60590071  0.54803774  0.45357943
   0.55799037  0.56374461  0.42243975
   0.57555067  0.59727759  0.46851249
   0.39626270  0.51874088  0.50932664
   0.44582631  0.51818253  0.51893131
   0.51395249  0.47004175  0.52066323
   0.52076313  0.41980683  0.52224687
   0.54784325  0.49206354  0.48817777
   0.57260060  0.56297212  0.45618807
   0.46762891  0.47986403  0.50834262
   0.54565789  0.53714208  0.48689686
   0.46531887  0.55050021  0.53624410
   0.57442539  0.46967555  0.46600606
Direct configuration=    33
   0.38444529  0.55324416  0.50952919
   0.38821163  0.50323899  0.47703184
   0.37845065  0.50014876  0.53544422
   0.45027364  0.45502765  0.49308238
   0.51926129  0.48482032  0.55385764
   0.55547456  0.41199281  0.53047546
   0.51412527  0.40482230  0.48939045
   0.49872149  0.40447097  0.54719792
   0.52141699  0.55219381  0.50592182
   0.60598779  0.54812281  0.45378475
   0.55820325  0.56396385  0.42249845
   0.57557070  0.59732374  0.46877775
   0.39627797  0.51870409  0.50927653
   0.44583529  0.51819444  0.51901303
   0.51393957  0.47001682  0.52061318
   0.52072642  0.41978975  0.52222234
   0.54774291  0.49207826  0.48808211
   0.57266865  0.56305783  0.45631094
   0.46758555  0.47981084  0.50834272
   0.54558037  0.53713994  0.48684619
   0.46527469  0.55036333  0.53640267
   0.57436646  0.46963905  0.46584153
Direct configuration=    34
   0.38448197  0.55321066  0.50934643
   0.38831385  0.50312385  0.47697818
   0.37836949  0.50018430  0.53538188
   0.45026839  0.45502882  0.49289318
   0.51931195  0.48482003  0.55377772
   0.55539902  0.41193940  0.53053571
   0.51414318  0.40477973  0.48932913
   0.49858358  0.40448624  0.54708932
   0.52138542  0.55219919  0.50595865
   0.60609265  0.54821543  0.45404377
   0.55843964  0.56419958  0.42261447
   0.57559250  0.59738110  0.46910098
   0.39629052  0.51867465  0.50922334
   0.44574566  0.51800823  0.51898909
   0.51390448  0.46998821  0.52052410
   0.52069346  0.41975364  0.52216632
   0.54776516  0.49196087  0.48789214
   0.57275859  0.56315310  0.45648268
   0.46757112  0.47982478  0.50836918
   0.54549157  0.53717166  0.48681597
   0.46531624  0.55036444  0.53665425
   0.57422362  0.46969814  0.46577895
Direct configuration=    35
   0.38448495  0.55321343  0.50934368
   0.38831278  0.50312293  0.47698009
   0.37836611  0.50018737  0.53538030
   0.45028109  0.45504593  0.49289993
   0.51931195  0.48482177  0.55376909
   0.55539899  0.41194068  0.53053614
   0.51414666  0.40477881  0.48932704
   0.49858341  0.40448727  0.54708899
   0.52137747  0.55219652  0.50596352
   0.60609327  0.54821671  0.45404905