   6   6   0   0
  0.4500000E+04  0.3000000E-08  0.3000000E-08  0.3000000E-08  0.0000000E+00
  1.000000000000000E-004
  CAR 
 unknown system                          
      2.01985849    -24.52493940  301     -7.09350982      1.00000000
    -24.525  0.0000E+00  0.0000E+00
    -24.436  0.0000E+00  0.0000E+00
    -24.348  0.0000E+00  0.0000E+00
    -24.259  0.0000E+00  0.0000E+00
    -24.171  0.0000E+00  0.0000E+00
    -24.083  0.0000E+00  0.0000E+00
    -23.994  0.0000E+00  0.0000E+00
    -23.906  0.0000E+00  0.0000E+00
    -23.817  0.0000E+00  0.0000E+00
    -23.729  0.0000E+00  0.0000E+00
    -23.640  0.1171E-15  0.1036E-16
    -23.552  0.1449E-13  0.1292E-14
    -23.463  0.1215E-11  0.1088E-12
    -23.375  0.6932E-10  0.6243E-11
    -23.286  0.2692E-08  0.2444E-09
    -23.198  0.7121E-07  0.6545E-08
    -23.109  0.1284E-05  0.1201E-06
    -23.021  0.1579E-04  0.1517E-05
    -22.932  0.1326E-03  0.1325E-04
    -22.844  0.7607E-03  0.8056E-04
    -22.755  0.2983E-02  0.3445E-03
    -22.667  0.8003E-02  0.1053E-02
    -22.578  0.1469E-01  0.2353E-02
    -22.490  0.1847E-01  0.3987E-02
    -22.401  0.1589E-01  0.5393E-02
    -22.313  0.9360E-02  0.6221E-02
    -22.224  0.3773E-02  0.6555E-02
    -22.136  0.1041E-02  0.6647E-02
    -22.047  0.1963E-03  0.6664E-02
    -21.959  0.2529E-04  0.6666E-02
    -21.870  0.2225E-05  0.6667E-02
    -21.782  0.1336E-06  0.6667E-02
    -21.693  0.5466E-08  0.6667E-02
    -21.605  0.1524E-09  0.6667E-02
    -21.517  0.2892E-11  0.6667E-02
    -21.428  0.3733E-13  0.6667E-02
    -21.340  0.3346E-15  0.6667E-02
    -21.251  0.0000E+00  0.6667E-02
    -21.163  0.0000E+00  0.6667E-02
    -21.074  0.0000E+00  0.6667E-02
    -20.986  0.0000E+00  0.6667E-02
    -20.897  0.0000E+00  0.6667E-02
    -20.809  0.0000E+00  0.6667E-02
    -20.720  0.0000E+00  0.6667E-02
    -20.632  0.0000E+00  0.6667E-02
    -20.543  0.4182E-17  0.6667E-02
    -20.455  0.7570E-15  0.6667E-02
    -20.366  0.8083E-13  0.6667E-02
    -20.278  0.5861E-11  0.6667E-02
    -20.189  0.2891E-09  0.6667E-02
    -20.101  0.9710E-08  0.6667E-02
    -20.012  0.2222E-06  0.6667E-02
    -19.924  0.3467E-05  0.6667E-02
    -19.835  0.3691E-04  0.6670E-02
    -19.747  0.2683E-03  0.6694E-02
    -19.658  0.1333E-02  0.6812E-02
    -19.570  0.4529E-02  0.7213E-02
    -19.481  0.1053E-01  0.8144E-02
    -19.393  0.1675E-01  0.9626E-02
    -19.304  0.1824E-01  0.1124E-01
    -19.216  0.1360E-01  0.1244E-01
    -19.127  0.6943E-02  0.1306E-01
    -19.039  0.2425E-02  0.1327E-01
    -18.951  0.5794E-03  0.1332E-01
    -18.862  0.9463E-04  0.1333E-01
    -18.774  0.1056E-04  0.1333E-01
    -18.685  0.8039E-06  0.1333E-01
    -18.597  0.4176E-07  0.1333E-01
    -18.508  0.1478E-08  0.1333E-01
    -18.420  0.3564E-10  0.1333E-01
    -18.331  0.5848E-12  0.1333E-01
    -18.243  0.6525E-14  0.1333E-01
    -18.154  0.5019E-16  0.1333E-01
    -18.066  0.0000E+00  0.1333E-01
    -17.977  0.0000E+00  0.1333E-01
    -17.889  0.0000E+00  0.1333E-01
    -17.800  0.0000E+00  0.1333E-01
    -17.712  0.0000E+00  0.1333E-01
    -17.623  0.0000E+00  0.1333E-01
    -17.535  0.0000E+00  0.1333E-01
    -17.446  0.0000E+00  0.1333E-01
    -17.358  0.0000E+00  0.1333E-01
    -17.269  0.0000E+00  0.1333E-01
    -17.181  0.0000E+00  0.1333E-01
    -17.092  0.0000E+00  0.1333E-01
    -17.004  0.0000E+00  0.1333E-01
    -16.915  0.0000E+00  0.1333E-01
    -16.827  0.0000E+00  0.1333E-01
    -16.738  0.0000E+00  0.1333E-01
    -16.650  0.0000E+00  0.1333E-01
    -16.562  0.0000E+00  0.1333E-01
    -16.473  0.0000E+00  0.1333E-01
    -16.385  0.0000E+00  0.1333E-01
    -16.296  0.0000E+00  0.1333E-01
    -16.208  0.0000E+00  0.1333E-01
    -16.119  0.0000E+00  0.1333E-01
    -16.031  0.0000E+00  0.1333E-01
    -15.942  0.0000E+00  0.1333E-01
    -15.854  0.0000E+00  0.1333E-01
    -15.765  0.0000E+00  0.1333E-01
    -15.677  0.0000E+00  0.1333E-01
    -15.588  0.0000E+00  0.1333E-01
    -15.500  0.0000E+00  0.1333E-01
    -15.411  0.0000E+00  0.1333E-01
    -15.323  0.0000E+00  0.1333E-01
    -15.234  0.0000E+00  0.1333E-01
    -15.146  0.0000E+00  0.1333E-01
    -15.057  0.0000E+00  0.1333E-01
    -14.969  0.0000E+00  0.1333E-01
    -14.880  0.0000E+00  0.1333E-01
    -14.792  0.0000E+00  0.1333E-01
    -14.703  0.0000E+00  0.1333E-01
    -14.615  0.0000E+00  0.1333E-01
    -14.526  0.0000E+00  0.1333E-01
    -14.438  0.0000E+00  0.1333E-01
    -14.349  0.0000E+00  0.1333E-01
    -14.261  0.0000E+00  0.1333E-01
    -14.172  0.0000E+00  0.1333E-01
    -14.084  0.0000E+00  0.1333E-01
    -13.996  0.8365E-17  0.1333E-01
    -13.907  0.1003E-14  0.1333E-01
    -13.819  0.1047E-12  0.1333E-01
    -13.730  0.7421E-11  0.1333E-01
    -13.642  0.3580E-09  0.1333E-01
    -13.553  0.1176E-07  0.1333E-01
    -13.465  0.2632E-06  0.1333E-01
    -13.376  0.4017E-05  0.1333E-01
    -13.288  0.4183E-04  0.1334E-01
    -13.199  0.2975E-03  0.1336E-01
    -13.111  0.1446E-02  0.1349E-01
    -13.022  0.4805E-02  0.1392E-01
    -12.934  0.1093E-01  0.1488E-01
    -12.845  0.1701E-01  0.1639E-01
    -12.757  0.1812E-01  0.1799E-01
    -12.668  0.1322E-01  0.1916E-01
    -12.580  0.6601E-02  0.1975E-01
    -12.491  0.2256E-02  0.1995E-01
    -12.403  0.5272E-03  0.1999E-01
    -12.314  0.8422E-04  0.2000E-01
    -12.226  0.9196E-05  0.2000E-01
    -12.137  0.8331E-06  0.2000E-01
    -12.049  0.2692E-05  0.2000E-01
    -11.960  0.3246E-04  0.2000E-01
    -11.872  0.2708E-03  0.2003E-01
    -11.783  0.1545E-02  0.2016E-01
    -11.695  0.6028E-02  0.2070E-01
    -11.606  0.1610E-01  0.2212E-01
    -11.518  0.2946E-01  0.2473E-01
    -11.430  0.3691E-01  0.2799E-01
    -11.341  0.3169E-01  0.3080E-01
    -11.253  0.1863E-01  0.3245E-01
    -11.164  0.7505E-02  0.3311E-01
    -11.076  0.2069E-02  0.3329E-01
    -10.987  0.3904E-03  0.3333E-01
    -10.899  0.5036E-04  0.3333E-01
    -10.810  0.4438E-05  0.3333E-01
    -10.722  0.2671E-06  0.3333E-01
    -10.633  0.1096E-07  0.3333E-01
    -10.545  0.3068E-09  0.3333E-01
    -10.456  0.5847E-11  0.3333E-01
    -10.368  0.7587E-13  0.3333E-01
    -10.279  0.6776E-15  0.3333E-01
    -10.191  0.0000E+00  0.3333E-01
    -10.102  0.0000E+00  0.3333E-01
    -10.014  0.0000E+00  0.3333E-01
     -9.925  0.0000E+00  0.3333E-01
     -9.837  0.0000E+00  0.3333E-01
     -9.748  0.0000E+00  0.3333E-01
     -9.660  0.8365E-17  0.3333E-01
     -9.571  0.1025E-14  0.3333E-01
     -9.483  0.1069E-12  0.3333E-01
     -9.394  0.7569E-11  0.3333E-01
     -9.306  0.3645E-09  0.3333E-01
     -9.217  0.1195E-07  0.3333E-01
     -9.129  0.2669E-06  0.3333E-01
     -9.040  0.4066E-05  0.3333E-01
     -8.952  0.4227E-04  0.3334E-01
     -8.864  0.3000E-03  0.3336E-01
     -8.775  0.1456E-02  0.3349E-01
     -8.687  0.4829E-02  0.3392E-01
     -8.598  0.1097E-01  0.3489E-01
     -8.510  0.1714E-01  0.3641E-01
     -8.421  0.1887E-01  0.3808E-01
     -8.333  0.1669E-01  0.3955E-01
     -8.244  0.1761E-01  0.4111E-01
     -8.156  0.2603E-01  0.4342E-01
     -8.067  0.3563E-01  0.4657E-01
     -7.979  0.3555E-01  0.4971E-01
     -7.890  0.2455E-01  0.5189E-01
     -7.802  0.1162E-01  0.5291E-01
     -7.713  0.3766E-02  0.5325E-01
     -7.625  0.8350E-03  0.5332E-01
     -7.536  0.1265E-03  0.5333E-01
     -7.448  0.1310E-04  0.5333E-01
     -7.359  0.9258E-06  0.5333E-01
     -7.271  0.4463E-07  0.5333E-01
     -7.182  0.1466E-08  0.5333E-01
     -7.094  0.3280E-10  0.5333E-01
     -7.005  0.4995E-12  0.5333E-01
     -6.917  0.5178E-14  0.5333E-01
     -6.828  0.3346E-16  0.5333E-01
     -6.740  0.0000E+00  0.5333E-01
     -6.651  0.0000E+00  0.5333E-01
     -6.563  0.0000E+00  0.5333E-01
     -6.474  0.0000E+00  0.5333E-01
     -6.386  0.0000E+00  0.5333E-01
     -6.298  0.0000E+00  0.5333E-01
     -6.209  0.0000E+00  0.5333E-01
     -6.121  0.0000E+00  0.5333E-01
     -6.032  0.0000E+00  0.5333E-01
     -5.944  0.0000E+00  0.5333E-01
     -5.855  0.0000E+00  0.5333E-01
     -5.767  0.0000E+00  0.5333E-01
     -5.678  0.0000E+00  0.5333E-01
     -5.590  0.0000E+00  0.5333E-01
     -5.501  0.0000E+00  0.5333E-01
     -5.413  0.0000E+00  0.5333E-01
     -5.324  0.0000E+00  0.5333E-01
     -5.236  0.0000E+00  0.5333E-01
     -5.147  0.0000E+00  0.5333E-01
     -5.059  0.0000E+00  0.5333E-01
     -4.970  0.0000E+00  0.5333E-01
     -4.882  0.0000E+00  0.5333E-01
     -4.793  0.0000E+00  0.5333E-01
     -4.705  0.0000E+00  0.5333E-01
     -4.616  0.0000E+00  0.5333E-01
     -4.528  0.0000E+00  0.5333E-01
     -4.439  0.0000E+00  0.5333E-01
     -4.351  0.0000E+00  0.5333E-01
     -4.262  0.0000E+00  0.5333E-01
     -4.174  0.0000E+00  0.5333E-01
     -4.085  0.0000E+00  0.5333E-01
     -3.997  0.0000E+00  0.5333E-01
     -3.908  0.0000E+00  0.5333E-01
     -3.820  0.0000E+00  0.5333E-01
     -3.732  0.0000E+00  0.5333E-01
     -3.643  0.0000E+00  0.5333E-01
     -3.555  0.0000E+00  0.5333E-01
     -3.466  0.0000E+00  0.5333E-01
     -3.378  0.0000E+00  0.5333E-01
     -3.289  0.0000E+00  0.5333E-01
     -3.201  0.0000E+00  0.5333E-01
     -3.112  0.0000E+00  0.5333E-01
     -3.024  0.0000E+00  0.5333E-01
     -2.935  0.0000E+00  0.5333E-01
     -2.847  0.0000E+00  0.5333E-01
     -2.758  0.0000E+00  0.5333E-01
     -2.670  0.0000E+00  0.5333E-01
     -2.581  0.0000E+00  0.5333E-01
     -2.493  0.0000E+00  0.5333E-01
     -2.404  0.0000E+00  0.5333E-01
     -2.316  0.0000E+00  0.5333E-01
     -2.227  0.0000E+00  0.5333E-01
     -2.139  0.0000E+00  0.5333E-01
     -2.050  0.0000E+00  0.5333E-01
     -1.962  0.6692E-16  0.5333E-01
     -1.873  0.8545E-14  0.5333E-01
     -1.785  0.7490E-12  0.5333E-01
     -1.696  0.4465E-10  0.5333E-01
     -1.608  0.1811E-08  0.5333E-01
     -1.519  0.5004E-07  0.5333E-01
     -1.431  0.9424E-06  0.5333E-01
     -1.342  0.1211E-04  0.5333E-01
     -1.254  0.1061E-03  0.5334E-01
     -1.166  0.6359E-03  0.5340E-01
     -1.077  0.2605E-02  0.5363E-01
     -0.989  0.7310E-02  0.5428E-01
     -0.900  0.1414E-01  0.5553E-01
     -0.812  0.1936E-01  0.5724E-01
     -0.723  0.2088E-01  0.5909E-01
     -0.635  0.2311E-01  0.6113E-01
     -0.546  0.3044E-01  0.6383E-01
     -0.458  0.3739E-01  0.6714E-01
     -0.369  0.3461E-01  0.7020E-01
     -0.281  0.2320E-01  0.7225E-01
     -0.192  0.1360E-01  0.7345E-01
     -0.104  0.1236E-01  0.7455E-01
     -0.015  0.1653E-01  0.7601E-01
      0.073  0.1855E-01  0.7765E-01
      0.162  0.1468E-01  0.7895E-01
      0.250  0.7980E-02  0.7966E-01
      0.339  0.2970E-02  0.7992E-01
      0.427  0.7563E-03  0.7999E-01
      0.516  0.1317E-03  0.8000E-01
      0.604  0.1566E-04  0.8000E-01
      0.693  0.1271E-05  0.8000E-01
      0.781  0.7040E-07  0.8000E-01
      0.870  0.2658E-08  0.8000E-01
      0.958  0.6835E-10  0.8000E-01
      1.047  0.1196E-11  0.8000E-01
      1.135  0.1424E-13  0.8000E-01
      1.224  0.1171E-15  0.8000E-01
      1.312  0.0000E+00  0.8000E-01
      1.400  0.0000E+00  0.8000E-01
      1.489  0.0000E+00  0.8000E-01
      1.577  0.0000E+00  0.8000E-01
      1.666  0.0000E+00  0.8000E-01
      1.754  0.0000E+00  0.8000E-01
      1.843  0.0000E+00  0.8000E-01
      1.931  0.0000E+00  0.8000E-01
      2.020  0.0000E+00  0.8000E-01
