    6    6  300    1
  0.4500000E+04  0.3000000E-08  0.3000000E-08  0.3000000E-08  0.0000000E+00
  1.000000000000000E-004
  CAR 
 unknown system                          
     16      4     12
 
  0.2500000E+00  0.2500000E+00  0.2500000E+00  0.2500000E+00
    1      -22.524939   1.000000
    2      -19.373000   1.000000
    3      -12.830401   1.000000
    4      -11.471271   1.000000
    5      -11.459142   1.000000
    6       -8.495187   1.000000
    7       -8.067617   1.000000
    8       -8.061893   1.000000
    9       -0.836635   0.000000
   10       -0.475185   0.000000
   11       -0.466309   0.000000
   12        0.019517   0.000000
 
 -0.2500000E+00  0.2500000E+00  0.2500000E+00  0.2500000E+00
    1      -22.524938   1.000000
    2      -19.372999   1.000000
    3      -12.830404   1.000000
    4      -11.471264   1.000000
    5      -11.459142   1.000000
    6       -8.495177   1.000000
    7       -8.067618   1.000000
    8       -8.061914   1.000000
    9       -0.836635   0.000000
   10       -0.475185   0.000000
   11       -0.466297   0.000000
   12        0.019012   0.000000
 
  0.2500000E+00 -0.2500000E+00  0.2500000E+00  0.2500000E+00
    1      -22.524939   1.000000
    2      -19.373000   1.000000
    3      -12.830402   1.000000
    4      -11.471267   1.000000
    5      -11.459148   1.000000
    6       -8.495182   1.000000
    7       -8.067620   1.000000
    8       -8.061902   1.000000
    9       -0.836635   0.000000
   10       -0.475193   0.000000
   11       -0.466293   0.000000
   12        0.019858   0.000000
 
 -0.2500000E+00 -0.2500000E+00  0.2500000E+00  0.2500000E+00
    1      -22.524938   1.000000
    2      -19.373001   1.000000
    3      -12.830402   1.000000
    4      -11.471266   1.000000
    5      -11.459149   1.000000
    6       -8.495179   1.000000
    7       -8.067636   1.000000
    8       -8.061903   1.000000
    9       -0.836635   0.000000
   10       -0.475177   0.000000
   11       -0.466289   0.000000
   12        0.019731   0.000000
