       N       E                     dE             d eps       ncg     rms          rms(c)
DAV:   1     0.115863392646E+03    0.11586E+03   -0.21190E+03   160   0.366E+02
DAV:   2    -0.189603452967E+00   -0.11605E+03   -0.11303E+03   192   0.108E+02
DAV:   3    -0.370355591250E+02   -0.36846E+02   -0.36701E+02   120   0.940E+01
DAV:   4    -0.407340315861E+02   -0.36985E+01   -0.36753E+01   128   0.290E+01
DAV:   5    -0.408177381073E+02   -0.83707E-01   -0.81029E-01   128   0.486E+00    0.109E+01
DAV:   6    -0.375338197350E+02    0.32839E+01   -0.65435E+00   116   0.176E+01    0.594E+00
DAV:   7    -0.368720035578E+02    0.66182E+00   -0.14005E+00   116   0.843E+00    0.301E+00
DAV:   8    -0.366985174566E+02    0.17349E+00   -0.42049E-01   128   0.481E+00    0.108E+00
DAV:   9    -0.366730260303E+02    0.25491E-01   -0.34455E-02   128   0.153E+00    0.332E-01
DAV:  10    -0.366685722768E+02    0.44538E-02   -0.47838E-03   128   0.597E-01    0.146E-01
DAV:  11    -0.366696850943E+02   -0.11128E-02   -0.18097E-03   128   0.326E-01    0.952E-02
DAV:  12    -0.366763593104E+02   -0.66742E-02   -0.49221E-03   112   0.529E-01    0.497E-02
DAV:  13    -0.366805699310E+02   -0.42106E-02   -0.12005E-03   160   0.235E-01    0.361E-02
DAV:  14    -0.366848446901E+02   -0.42748E-02   -0.57261E-04   128   0.150E-01    0.249E-02
DAV:  15    -0.366879526043E+02   -0.31079E-02   -0.30688E-04   128   0.926E-02    0.158E-02
DAV:  16    -0.366901346975E+02   -0.21821E-02   -0.26249E-04   128   0.950E-02    0.110E-02
DAV:  17    -0.366911315955E+02   -0.99690E-03   -0.50724E-05    88   0.521E-02    0.398E-03
DAV:  18    -0.366916089915E+02   -0.47740E-03   -0.29723E-05    84   0.317E-02    0.293E-03
DAV:  19    -0.366918886344E+02   -0.27964E-03   -0.13620E-05    80   0.205E-02    0.173E-03
DAV:  20    -0.366919948810E+02   -0.10625E-03   -0.34646E-06    80   0.127E-02    0.139E-03
DAV:  21    -0.366920462074E+02   -0.51326E-04   -0.13975E-06    80   0.749E-03
   1 F= -.36692046E+02 E0= -.36692046E+02  d E =-.366920E+02
       N       E                     dE             d eps       ncg     rms          rms(c)
DAV:   1    -0.366922280315E+02   -0.23315E-03   -0.36512E-03   112   0.575E-01    0.216E-02
DAV:   2    -0.366922287923E+02   -0.76083E-06   -0.62473E-05    96   0.791E-02    0.129E-02
DAV:   3    -0.366922335392E+02   -0.47469E-05   -0.17704E-05    72   0.388E-02    0.532E-03
DAV:   4    -0.366922391978E+02   -0.56586E-05   -0.53721E-06    72   0.205E-02    0.279E-03
DAV:   5    -0.366922437876E+02   -0.45898E-05   -0.80458E-07    64   0.924E-03    0.542E-04
DAV:   6    -0.366922459572E+02   -0.21696E-05   -0.17320E-07    88   0.340E-03
   2 F= -.36692246E+02 E0= -.36692246E+02  d E =-.199750E-03
       N       E                     dE             d eps       ncg     rms          rms(c)
DAV:   1    -0.366924736303E+02   -0.22984E-03   -0.67025E-03    96   0.766E-01    0.218E-02
DAV:   2    -0.366924748453E+02   -0.12149E-05   -0.10670E-04    64   0.898E-02    0.138E-02
DAV:   3    -0.366924753775E+02   -0.53225E-06   -0.17208E-05    96   0.381E-02    0.574E-03
DAV:   4    -0.366924773733E+02   -0.19958E-05   -0.52650E-06    64   0.197E-02    0.201E-03
DAV:   5    -0.366924781009E+02   -0.72767E-06   -0.94199E-07    88   0.836E-03    0.924E-04
DAV:   6    -0.366924789176E+02   -0.81661E-06   -0.25602E-07    64   0.384E-03
   3 F= -.36692479E+02 E0= -.36692479E+02  d E =-.232960E-03
       N       E                     dE             d eps       ncg     rms          rms(c)
DAV:   1    -0.366927957000E+02   -0.31760E-03   -0.90862E-03    96   0.872E-01    0.222E-02
DAV:   2    -0.366927980077E+02   -0.23077E-05   -0.10520E-04    64   0.875E-02    0.137E-02
DAV:   3    -0.366927996241E+02   -0.16164E-05   -0.17825E-05    96   0.375E-02    0.395E-03
DAV:   4    -0.366928005623E+02   -0.93819E-06   -0.38322E-06    64   0.169E-02    0.188E-03
DAV:   5    -0.366928008146E+02   -0.25238E-06   -0.79799E-07    48   0.743E-03    0.893E-04
DAV:   6    -0.366928010790E+02   -0.26439E-06   -0.34392E-07    96   0.415E-03
   4 F= -.36692801E+02 E0= -.36692801E+02  d E =-.322161E-03
       N       E                     dE             d eps       ncg     rms          rms(c)
DAV:   1    -0.366933761444E+02   -0.57533E-03   -0.15705E-02    96   0.117E+00    0.304E-02
DAV:   2    -0.366933807148E+02   -0.45704E-05   -0.21868E-04   128   0.124E-01    0.201E-02
DAV:   3    -0.366933787239E+02    0.19909E-05   -0.10586E-05    96   0.311E-02    0.989E-03
DAV:   4    -0.366933808424E+02   -0.21186E-05   -0.61062E-06    96   0.229E-02    0.253E-03
DAV:   5    -0.366933810817E+02   -0.23931E-06   -0.12413E-06    64   0.105E-02    0.101E-03
DAV:   6    -0.366933813209E+02   -0.23914E-06   -0.26711E-07    52   0.420E-03
   5 F= -.36693381E+02 E0= -.36693381E+02  d E =-.580242E-03
       N       E                     dE             d eps       ncg     rms          rms(c)
DAV:   1    -0.366942365044E+02   -0.85542E-03   -0.26857E-02    96   0.153E+00    0.350E-02
DAV:   2    -0.366942518376E+02   -0.15333E-04   -0.32814E-04   120   0.149E-01    0.247E-02
DAV:   3    -0.366942507370E+02    0.11006E-05   -0.19356E-05    64   0.434E-02    0.915E-03
DAV:   4    -0.366942529267E+02   -0.21897E-05   -0.73297E-06    64   0.251E-02    0.315E-03
DAV:   5    -0.366942531110E+02   -0.18423E-06   -0.12892E-06    64   0.113E-02    0.104E-03
DAV:   6    -0.366942534537E+02   -0.34275E-06   -0.41850E-07    48   0.497E-03
   6 F= -.36694253E+02 E0= -.36694253E+02  d E =-.872133E-03
       N       E                     dE             d eps       ncg     rms          rms(c)
DAV:   1    -0.366953336955E+02   -0.10806E-02   -0.41577E-02    96   0.189E+00    0.414E-02
DAV:   2    -0.366953576307E+02   -0.23935E-04   -0.45836E-04   128   0.175E-01    0.292E-02
DAV:   3    -0.366953591603E+02   -0.15296E-05   -0.18204E-05    64   0.439E-02    0.916E-03
DAV:   4    -0.366953617543E+02   -0.25939E-05   -0.64809E-06    80   0.225E-02    0.288E-03
DAV:   5    -0.366953621111E+02   -0.35682E-06   -0.11191E-06    48   0.964E-03    0.153E-03
DAV:   6    -0.366953627280E+02   -0.61692E-06   -0.42338E-07    64   0.521E-03
   7 F= -.36695363E+02 E0= -.36695363E+02  d E =-.110927E-02
       N       E                     dE             d eps       ncg     rms          rms(c)
DAV:   1    -0.366967932967E+02   -0.14312E-02   -0.84344E-02    96   0.270E+00    0.596E-02
DAV:   2    -0.366968291569E+02   -0.35860E-04   -0.91216E-04   128   0.246E-01    0.421E-02
DAV:   3    -0.366968364595E+02   -0.73025E-05   -0.38111E-05    80   0.621E-02    0.153E-02
DAV:   4    -0.366968442531E+02   -0.77936E-05   -0.14152E-05    64   0.339E-02    0.431E-03
DAV:   5    -0.366968449709E+02   -0.71781E-06   -0.24522E-06    64   0.141E-02    0.248E-03
DAV:   6    -0.366968461609E+02   -0.11900E-05   -0.75099E-07    92   0.765E-03
   8 F= -.36696846E+02 E0= -.36696846E+02  d E =-.148343E-02
       N       E                     dE             d eps       ncg     rms          rms(c)
DAV:   1    -0.366984618278E+02   -0.16169E-02   -0.15920E-01    96   0.374E+00    0.856E-02
DAV:   2    -0.366985178521E+02   -0.56024E-04   -0.18214E-03   128   0.355E-01    0.597E-02
DAV:   3    -0.366985169045E+02    0.94756E-06   -0.73600E-05    84   0.851E-02    0.257E-02
DAV:   4    -0.366985339848E+02   -0.17080E-04   -0.32161E-05    84   0.531E-02    0.580E-03
DAV:   5    -0.366985351917E+02   -0.12069E-05   -0.64620E-06    64   0.235E-02    0.230E-03
DAV:   6    -0.366985363318E+02   -0.11402E-05   -0.13526E-06    48   0.961E-03
   9 F= -.36698536E+02 E0= -.36698536E+02  d E =-.169017E-02
       N       E                     dE             d eps       ncg     rms          rms(c)
DAV:   1    -0.366993008355E+02   -0.76564E-03   -0.25510E-01    96   0.472E+00    0.135E-01
DAV:   2    -0.366992495219E+02    0.51314E-04   -0.34780E-03   128   0.491E-01    0.895E-02
DAV:   3    -0.366992073218E+02    0.42200E-04   -0.29406E-04   128   0.150E-01    0.462E-02
DAV:   4    -0.366992539208E+02   -0.46599E-04   -0.10351E-04    96   0.912E-02    0.118E-02
DAV:   5    -0.366992556967E+02   -0.17759E-05   -0.18269E-05    96   0.419E-02    0.590E-03
DAV:   6    -0.366992595501E+02   -0.38534E-05   -0.47553E-06    64   0.179E-02
  10 F= -.36699260E+02 E0= -.36699260E+02  d E =-.723218E-03
       N       E                     dE             d eps       ncg     rms          rms(c)
DAV:   1    -0.367005372184E+02   -0.12815E-02   -0.45847E-02    96   0.188E+00    0.103E-01
DAV:   2    -0.367003787932E+02    0.15843E-03   -0.80936E-04   128   0.255E-01    0.482E-02
DAV:   3    -0.367003518310E+02    0.26962E-04   -0.14801E-04    96   0.107E-01    0.229E-02
DAV:   4    -0.367003595467E+02   -0.77157E-05   -0.57155E-05    84   0.699E-02    0.796E-03
DAV:   5    -0.367003608412E+02   -0.12945E-05   -0.80121E-06    92   0.278E-02    0.307E-03
DAV:   6    -0.367003619687E+02   -0.11275E-05   -0.26544E-06    72   0.145E-02
  11 F= -.36700362E+02 E0= -.36700362E+02  d E =-.110242E-02
       N       E                     dE             d eps       ncg     rms          rms(c)
DAV:   1    -0.367003700378E+02   -0.91966E-05   -0.27638E-05    84   0.502E-02    0.184E-03
DAV:   2    -0.367003705846E+02   -0.54684E-06   -0.14367E-06    48   0.125E-02    0.128E-03
DAV:   3    -0.367003710302E+02   -0.44565E-06   -0.19213E-07    48   0.420E-03    0.849E-04
DAV:   4    -0.367003718229E+02   -0.79263E-06   -0.97822E-08    72   0.253E-03    0.201E-04
DAV:   5    -0.367003721730E+02   -0.35008E-06   -0.42229E-08    48   0.127E-03    0.136E-04
DAV:   6    -0.367003725675E+02   -0.39458E-06   -0.29613E-08    64   0.728E-04
  12 F= -.36700373E+02 E0= -.36700373E+02  d E =-.105988E-04
       N       E                     dE             d eps       ncg     rms          rms(c)
DAV:   1    -0.367003834543E+02   -0.11281E-04   -0.91931E-05    48   0.918E-02    0.341E-03
DAV:   2    -0.367003837501E+02   -0.29585E-06   -0.42401E-06    48   0.219E-02    0.194E-03
DAV:   3    -0.367003838840E+02   -0.13384E-06   -0.48762E-07    48   0.662E-03    0.121E-03
DAV:   4    -0.367003841144E+02   -0.23048E-06   -0.16991E-07    96   0.363E-03    0.346E-04
DAV:   5    -0.367003842377E+02   -0.12329E-06   -0.59225E-08    48   0.179E-03    0.200E-04
DAV:   6    -0.367003843456E+02   -0.10784E-06   -0.27868E-08    48   0.896E-04
  13 F= -.36700384E+02 E0= -.36700384E+02  d E =-.117780E-04
       N       E                     dE             d eps       ncg     rms          rms(c)
DAV:   1    -0.367003940962E+02   -0.98584E-05   -0.16217E-04    48   0.122E-01    0.426E-03
DAV:   2    -0.367003945046E+02   -0.40838E-06   -0.75599E-06    48   0.291E-02    0.240E-03
DAV:   3    -0.367003945653E+02   -0.60735E-07   -0.85290E-07    64   0.882E-03    0.150E-03
DAV:   4    -0.367003946552E+02   -0.89911E-07   -0.25148E-07    80   0.453E-03    0.442E-04
DAV:   5    -0.367003947017E+02   -0.46479E-07   -0.80369E-08    48   0.226E-03    0.235E-04
DAV:   6    -0.367003947381E+02   -0.36403E-07   -0.31443E-08    48   0.111E-03
  14 F= -.36700395E+02 E0= -.36700395E+02  d E =-.103925E-04
       N       E                     dE             d eps       ncg     rms          rms(c)
DAV:   1    -0.367004034386E+02   -0.87369E-05   -0.23227E-04    96   0.144E-01    0.480E-03
DAV:   2    -0.367004033058E+02    0.13283E-06   -0.35651E-06    64   0.183E-02    0.258E-03
DAV:   3    -0.367004033277E+02   -0.21945E-07   -0.60392E-07    64   0.723E-03    0.121E-03
DAV:   4    -0.367004033878E+02   -0.60094E-07   -0.17259E-07    48   0.390E-03    0.356E-04
DAV:   5    -0.367004034104E+02   -0.22595E-07   -0.48296E-08    48   0.177E-03    0.135E-04
DAV:   6    -0.367004034208E+02   -0.10422E-07   -0.21369E-08    48   0.852E-04
  15 F= -.36700403E+02 E0= -.36700403E+02  d E =-.868273E-05
       N       E                     dE             d eps       ncg     rms          rms(c)
DAV:   1    -0.367004121204E+02   -0.87100E-05   -0.30720E-04    96   0.164E-01    0.509E-03
DAV:   2    -0.367004120974E+02    0.23013E-07   -0.43278E-06    64   0.195E-02    0.269E-03
DAV:   3    -0.367004121758E+02   -0.78439E-07   -0.68233E-07    48   0.756E-03    0.118E-03
DAV:   4    -0.367004122506E+02   -0.74795E-07   -0.18383E-07    48   0.389E-03    0.387E-04
DAV:   5    -0.367004122676E+02   -0.16977E-07   -0.50191E-08    48   0.180E-03    0.198E-04
DAV:   6    -0.367004122813E+02   -0.13735E-07   -0.23196E-08    48   0.878E-04
  16 F= -.36700412E+02 E0= -.36700412E+02  d E =-.886053E-05
       N       E                     dE             d eps       ncg     rms          rms(c)
DAV:   1    -0.367004216201E+02   -0.93525E-05   -0.40987E-04    96   0.185E-01    0.572E-03
DAV:   2    -0.367004215787E+02    0.41394E-07   -0.53753E-06    64   0.208E-02    0.308E-03
DAV:   3    -0.367004217104E+02   -0.13172E-06   -0.88270E-07    48   0.861E-03    0.119E-03
DAV:   4    -0.367004217917E+02   -0.81284E-07   -0.24531E-07    48   0.431E-03    0.451E-04
DAV:   5    -0.367004218079E+02   -0.16197E-07   -0.57275E-08    48   0.189E-03    0.254E-04
DAV:   6    -0.367004218269E+02   -0.19028E-07   -0.25721E-08    48   0.986E-04
  17 F= -.36700422E+02 E0= -.36700422E+02  d E =-.954559E-05
       N       E                     dE             d eps       ncg     rms          rms(c)
DAV:   1    -0.367004314778E+02   -0.96699E-05   -0.63095E-04    96   0.224E-01    0.683E-03
DAV:   2    -0.367004313688E+02    0.10896E-06   -0.80369E-06    64   0.242E-02    0.386E-03
DAV:   3    -0.367004315585E+02   -0.18970E-06   -0.13589E-06    48   0.106E-02    0.137E-03
DAV:   4    -0.367004316641E+02   -0.10558E-06   -0.38265E-07    48   0.527E-03    0.566E-04
DAV:   5    -0.367004316805E+02   -0.16398E-07   -0.78500E-08    48   0.224E-03    0.299E-04
DAV:   6    -0.367004317048E+02   -0.24341E-07   -0.33631E-08    48   0.121E-03
  18 F= -.36700432E+02 E0= -.36700432E+02  d E =-.987790E-05
       N       E                     dE             d eps       ncg     rms          rms(c)
DAV:   1    -0.367004437320E+02   -0.12051E-04   -0.81458E-04    96   0.252E-01    0.735E-03
DAV:   2    -0.367004436998E+02    0.32117E-07   -0.10112E-05    64   0.266E-02    0.421E-03
DAV:   3    -0.367004439414E+02   -0.24154E-06   -0.15917E-06    48   0.113E-02    0.147E-03
DAV:   4    -0.367004440686E+02   -0.12721E-06   -0.44379E-07    48   0.557E-03    0.596E-04
DAV:   5    -0.367004440899E+02   -0.21262E-07   -0.93937E-08    48   0.240E-03    0.309E-04
DAV:   6    -0.367004441200E+02   -0.30190E-07   -0.39342E-08    48   0.126E-03
  19 F= -.36700444E+02 E0= -.36700444E+02  d E =-.124152E-04
       N       E                     dE             d eps       ncg     rms          rms(c)
DAV:   1    -0.367004706572E+02   -0.26567E-04   -0.89411E-04    96   0.268E-01    0.700E-03
DAV:   2    -0.367004708399E+02   -0.18273E-06   -0.10839E-05    56   0.278E-02    0.414E-03
DAV:   3    -0.367004710805E+02   -0.24052E-06   -0.15504E-06    48   0.109E-02    0.153E-03
DAV:   4    -0.367004712181E+02   -0.13763E-06   -0.40731E-07    48   0.534E-03    0.563E-04
DAV:   5    -0.367004712481E+02   -0.29996E-07   -0.99097E-08    48   0.240E-03    0.258E-04
DAV:   6    -0.367004712776E+02   -0.29491E-07   -0.42317E-08    48   0.121E-03
  20 F= -.36700471E+02 E0= -.36700471E+02  d E =-.271575E-04
       N       E                     dE             d eps       ncg     rms          rms(c)
DAV:   1    -0.367005322504E+02   -0.61002E-04   -0.10134E-03    96   0.292E-01    0.733E-03
DAV:   2    -0.367005324497E+02   -0.19930E-06   -0.12091E-05    48   0.302E-02    0.462E-03
DAV:   3    -0.367005325744E+02   -0.12467E-06   -0.18872E-06    60   0.121E-02    0.182E-03
DAV:   4    -0.367005327201E+02   -0.14572E-06   -0.53839E-07    48   0.632E-03    0.677E-04
DAV:   5    -0.367005327555E+02   -0.35380E-07   -0.12751E-07    48   0.286E-03    0.204E-04
DAV:   6    -0.367005327861E+02   -0.30641E-07   -0.51116E-08    48   0.143E-03
  21 F= -.36700533E+02 E0= -.36700533E+02  d E =-.615086E-04
       N       E                     dE             d eps       ncg     rms          rms(c)
DAV:   1    -0.367006509413E+02   -0.11819E-03   -0.15158E-03    96   0.367E-01    0.889E-03
DAV:   2    -0.367006512167E+02   -0.27540E-06   -0.16292E-05    64   0.362E-02    0.583E-03
DAV:   3    -0.367006513919E+02   -0.17516E-06   -0.27746E-06    64   0.152E-02    0.202E-03
DAV:   4    -0.367006515663E+02   -0.17445E-06   -0.81447E-07    48   0.773E-03    0.834E-04
DAV:   5    -0.367006516024E+02   -0.36129E-07   -0.18365E-07    48   0.360E-03    0.283E-04
DAV:   6    -0.367006516411E+02   -0.38643E-07   -0.77584E-08    48   0.185E-03
  22 F= -.36700652E+02 E0= -.36700652E+02  d E =-.118855E-03
       N       E                     dE             d eps       ncg     rms          rms(c)
DAV:   1    -0.367008657255E+02   -0.21412E-03   -0.36773E-03    96   0.572E-01    0.127E-02
DAV:   2    -0.367008665328E+02   -0.80729E-06   -0.32560E-05    80   0.511E-02    0.853E-03
DAV:   3    -0.367008676197E+02   -0.10869E-05   -0.54900E-06    64   0.213E-02    0.179E-03
DAV:   4    -0.367008678181E+02   -0.19844E-06   -0.12879E-06    48   0.914E-03    0.852E-04
DAV:   5    -0.367008678724E+02   -0.54231E-07   -0.35490E-07    48   0.443E-03    0.381E-04
DAV:   6    -0.367008679309E+02   -0.58543E-07   -0.16349E-07    48   0.276E-03
  23 F= -.36700868E+02 E0= -.36700868E+02  d E =-.216290E-03
       N       E                     dE             d eps       ncg     rms          rms(c)
DAV:   1    -0.367011998566E+02   -0.33198E-03   -0.95369E-03    96   0.912E-01    0.200E-02
DAV:   2    -0.367012016773E+02   -0.18207E-05   -0.82668E-05    96   0.798E-02    0.136E-02
DAV:   3    -0.367012046335E+02   -0.29562E-05   -0.13574E-05    64   0.320E-02    0.313E-03
DAV:   4    -0.367012051891E+02   -0.55557E-06   -0.31630E-06    48   0.138E-02    0.118E-03
DAV:   5    -0.367012053283E+02   -0.13924E-06   -0.95366E-07    48   0.682E-03    0.524E-04
DAV:   6    -0.367012054454E+02   -0.11710E-06   -0.38248E-07    48   0.391E-03
  24 F= -.36701205E+02 E0= -.36701205E+02  d E =-.337515E-03
       N       E                     dE             d eps       ncg     rms          rms(c)
DAV:   1    -0.367016496219E+02   -0.44429E-03   -0.21713E-02    96   0.136E+00    0.301E-02
DAV:   2    -0.367016563839E+02   -0.67620E-05   -0.22254E-04   128   0.119E-01    0.213E-02
DAV:   3    -0.367016601068E+02   -0.37229E-05   -0.80260E-06    64   0.294E-02    0.662E-03
DAV:   4    -0.367016618582E+02   -0.17514E-05   -0.24944E-06    64   0.142E-02    0.185E-03
DAV:   5    -0.367016620179E+02   -0.15968E-06   -0.44617E-07    48   0.577E-03    0.914E-04
DAV:   6    -0.367016622439E+02   -0.22601E-06   -0.13357E-07    48   0.290E-03
  25 F= -.36701662E+02 E0= -.36701662E+02  d E =-.456798E-03
       N       E                     dE             d eps       ncg     rms          rms(c)
DAV:   1    -0.367022011328E+02   -0.53911E-03   -0.43675E-02    96   0.192E+00    0.420E-02
DAV:   2    -0.367022140348E+02   -0.12902E-04   -0.44538E-04   128   0.168E-01    0.297E-02
DAV:   3    -0.367022224106E+02   -0.83758E-05   -0.16714E-05    80   0.418E-02    0.951E-03
DAV:   4    -0.367022269131E+02   -0.45025E-05   -0.52784E-06    64   0.207E-02    0.271E-03
DAV:   5    -0.367022272430E+02   -0.32992E-06   -0.89341E-07    48   0.822E-03    0.171E-03
DAV:   6    -0.367022278780E+02   -0.63497E-06   -0.29100E-07    88   0.460E-03
  26 F= -.36702228E+02 E0= -.36702228E+02  d E =-.565634E-03
       N       E                     dE             d eps       ncg     rms          rms(c)
DAV:   1    -0.367028020093E+02   -0.57477E-03   -0.80335E-02    96   0.259E+00    0.566E-02
DAV:   2    -0.367028305422E+02   -0.28533E-04   -0.83388E-04   128   0.229E-01    0.402E-02
DAV:   3    -0.367028437436E+02   -0.13201E-04   -0.30012E-05    96   0.557E-02    0.134E-02
DAV:   4    -0.367028527030E+02   -0.89594E-05   -0.10173E-05    64   0.286E-02    0.370E-03
DAV:   5    -0.367028533835E+02   -0.68051E-06   -0.17687E-06    48   0.116E-02    0.234E-03
DAV:   6    -0.367028545403E+02   -0.11568E-05   -0.50918E-07    64   0.608E-03
  27 F= -.36702855E+02 E0= -.36702855E+02  d E =-.626662E-03
       N       E                     dE             d eps       ncg     rms          rms(c)
DAV:   1    -0.367033764466E+02   -0.52306E-03   -0.13491E-01    96   0.336E+00    0.726E-02
DAV:   2    -0.367034337289E+02   -0.57282E-04   -0.14268E-03   128   0.297E-01    0.520E-02
DAV:   3    -0.367034536971E+02   -0.19968E-04   -0.50046E-05    96   0.736E-02    0.166E-02
DAV:   4    -0.367034688962E+02   -0.15199E-04   -0.16821E-05    64   0.375E-02    0.465E-03
DAV:   5    -0.367034700205E+02   -0.11242E-05   -0.29227E-06    48   0.149E-02    0.285E-03
DAV:   6    -0.367034716014E+02   -0.15809E-05   -0.85745E-07    64   0.800E-03
  28 F= -.36703472E+02 E0= -.36703472E+02  d E =-.617061E-03
