 vasp.5.4.1 24Jun15 (build Jan 13 2020 12:58:22) complex                        
  
 executed on           IFC91_ompi date 2020.02.03  02:42:24
 running on   15 total cores
 each image running on    1 cores
 distrk:  each k-point on    1 cores,    1 groups
 distr:  one band on NCORES_PER_BAND=   1 cores,    1 groups


--------------------------------------------------------------------------------------------------------


 INCAR:
 POTCAR:    PAW_PBE H 15Jun2001                   
 POTCAR:    PAW_PBE C 08Apr2002                   
 POTCAR:    PAW_PBE N 08Apr2002                   
 POTCAR:    PAW_PBE H 15Jun2001                   
   VRHFIN =H: ultrasoft test                                                    
   LEXCH  = PE                                                                  
   EATOM  =    12.4884 eV,    0.9179 Ry                                         
                                                                                
   TITEL  = PAW_PBE H 15Jun2001                                                 
   LULTRA =        F    use ultrasoft PP ?                                      
   IUNSCR =        0    unscreen: 0-lin 1-nonlin 2-no                           
   RPACOR =    0.000    partial core radius                                     
   POMASS =    1.000; ZVAL   =    1.000    mass and valenz                      
   RCORE  =    1.100    outmost cutoff radius                                   
   RWIGS  =    0.700; RWIGS  =    0.370    wigner-seitz radius (au A)           
   ENMAX  =  250.000; ENMIN  =  200.000 eV                                      
   RCLOC  =    0.701    cutoff for local pot                                    
   LCOR   =        T    correct aug charges                                     
   LPAW   =        T    paw PP                                                  
   EAUG   =  400.000                                                            
   RMAX   =    1.123    core radius for proj-oper                               
   RAUG   =    1.200    factor for augmentation sphere                          
   RDEP   =    1.112    radius for radial grids                                 
   RDEPT  =    0.926    core radius for aug-charge                              
                                                                                
   Atomic configuration                                                         
    2 entries                                                                   
     n  l   j            E        occ.                                          
     1  0  0.50        -6.4927   1.0000                                         
     2  1  0.50        -3.4015   0.0000                                         
   Description                                                                  
     l       E           TYP  RCUT    TYP  RCUT                                 
     0     -6.4927494     23  1.100                                             
     0      6.8029130     23  1.100                                             
     1     -4.0817478     23  1.100                                             
  local pseudopotential read in
  atomic valenz-charges read in
  non local Contribution for L=           0  read in
    real space projection operators read in
  non local Contribution for L=           0  read in
    real space projection operators read in
  non local Contribution for L=           1  read in
    real space projection operators read in
    PAW grid and wavefunctions read in
 
   number of l-projection  operators is LMAX  =           3
   number of lm-projection operators is LMMAX =           5
 
 POTCAR:    PAW_PBE C 08Apr2002                   
   VRHFIN =C: s2p2                                                              
   LEXCH  = PE                                                                  
   EATOM  =   147.1560 eV,   10.8157 Ry                                         
                                                                                
   TITEL  = PAW_PBE C 08Apr2002                                                 
   LULTRA =        F    use ultrasoft PP ?                                      
   IUNSCR =        1    unscreen: 0-lin 1-nonlin 2-no                           
   RPACOR =    1.200    partial core radius                                     
   POMASS =   12.011; ZVAL   =    4.000    mass and valenz                      
   RCORE  =    1.500    outmost cutoff radius                                   
   RWIGS  =    1.630; RWIGS  =    0.863    wigner-seitz radius (au A)           
   ENMAX  =  400.000; ENMIN  =  300.000 eV                                      
   ICORE  =        2    local potential                                         
   LCOR   =        T    correct aug charges                                     
   LPAW   =        T    paw PP                                                  
   EAUG   =  644.873                                                            
   DEXC   =    0.000                                                            
   RMAX   =    1.529    core radius for proj-oper                               
   RAUG   =    1.300    factor for augmentation sphere                          
   RDEP   =    1.501    radius for radial grids                                 
   RDEPT  =    1.300    core radius for aug-charge                              
                                                                                
   Atomic configuration                                                         
    4 entries                                                                   
     n  l   j            E        occ.                                          
     1  0  0.50      -273.3789   2.0000                                         
     2  0  0.50       -13.7508   2.0000                                         
     2  1  0.50        -5.2854   2.0000                                         
     3  2  1.50        -5.4423   0.0000                                         
   Description                                                                  
     l       E           TYP  RCUT    TYP  RCUT                                 
     0    -13.7508458     23  1.200                                             
     0     -8.2022199     23  1.200                                             
     1     -5.2854383     23  1.500                                             
     1     34.0145650     23  1.500                                             
     2     -5.4423304      7  1.500                                             
  local pseudopotential read in
  partial core-charges read in
  partial kinetic energy density read in
  atomic valenz-charges read in
  non local Contribution for L=           0  read in
    real space projection operators read in
  non local Contribution for L=           0  read in
    real space projection operators read in
  non local Contribution for L=           1  read in
    real space projection operators read in
  non local Contribution for L=           1  read in
    real space projection operators read in
    PAW grid and wavefunctions read in
 
   number of l-projection  operators is LMAX  =           4
   number of lm-projection operators is LMMAX =           8
 
 POTCAR:    PAW_PBE N 08Apr2002                   
   VRHFIN =N: s2p3                                                              
   LEXCH  = PE                                                                  
   EATOM  =   264.5486 eV,   19.4438 Ry                                         
                                                                                
   TITEL  = PAW_PBE N 08Apr2002                                                 
   LULTRA =        F    use ultrasoft PP ?                                      
   IUNSCR =        1    unscreen: 0-lin 1-nonlin 2-no                           
   RPACOR =    1.200    partial core radius                                     
   POMASS =   14.001; ZVAL   =    5.000    mass and valenz                      
   RCORE  =    1.500    outmost cutoff radius                                   
   RWIGS  =    1.400; RWIGS  =    0.741    wigner-seitz radius (au A)           
   ENMAX  =  400.000; ENMIN  =  300.000 eV                                      
   ICORE  =        2    local potential                                         
   LCOR   =        T    correct aug charges                                     
   LPAW   =        T    paw PP                                                  
   EAUG   =  627.112                                                            
   DEXC   =    0.000                                                            
   RMAX   =    1.529    core radius for proj-oper                               
   RAUG   =    1.300    factor for augmentation sphere                          
   RDEP   =    1.514    radius for radial grids                                 
   RDEPT  =    1.338    core radius for aug-charge                              
                                                                                
   Atomic configuration                                                         
    4 entries                                                                   
     n  l   j            E        occ.                                          
     1  0  0.50      -384.7179   2.0000                                         
     2  0  0.50       -18.5828   2.0000                                         
     2  1  0.50        -7.0898   3.0000                                         
     3  2  1.50        -6.8029   0.0000                                         
   Description                                                                  
     l       E           TYP  RCUT    TYP  RCUT                                 
     0    -18.5828119     23  1.200                                             
     0    -13.5018863     23  1.200                                             
     1     -7.0897853     23  1.500                                             
     1      9.5240782     23  1.500                                             
     2     -6.8029130      7  1.500                                             
  local pseudopotential read in
  partial core-charges read in
  partial kinetic energy density read in
  atomic valenz-charges read in
  non local Contribution for L=           0  read in
    real space projection operators read in
  non local Contribution for L=           0  read in
    real space projection operators read in
  non local Contribution for L=           1  read in
    real space projection operators read in
  non local Contribution for L=           1  read in
    real space projection operators read in
    PAW grid and wavefunctions read in
 
   number of l-projection  operators is LMAX  =           4
   number of lm-projection operators is LMMAX =           8
 

 ----------------------------------------------------------------------------- 
|                                                                             |
|  ADVICE TO THIS USER RUNNING 'VASP/VAMP'   (HEAR YOUR MASTER'S VOICE ...):  |
|                                                                             |
|      You have a (more or less) 'small supercell' and for smaller cells      |
|      it is recommended  to use the reciprocal-space projection scheme!      |
|      The real space optimization is not  efficient for small cells and it   |
|      is also less accurate ...                                              |
|      Therefore set LREAL=.FALSE. in the  INCAR file                         |
|                                                                             |
 ----------------------------------------------------------------------------- 

 Optimization of the real space projectors (new method)

 maximal supplied QI-value         = 34.20
 optimisation between [QCUT,QGAM] = [  9.92, 20.18] = [ 27.55,114.04] Ry 
 Optimized for a Real-space Cutoff    1.26 Angstroem

   l    n(q)    QCUT    max X(q) W(low)/X(q) W(high)/X(q)  e(spline) 
   0      8     9.919    19.460    0.50E-03    0.23E-03    0.29E-06
   0      8     9.919    12.209    0.48E-03    0.23E-03    0.28E-06
   1      7     9.919     4.655    0.17E-03    0.75E-03    0.30E-06
 Optimization of the real space projectors (new method)

 maximal supplied QI-value         = 25.13
 optimisation between [QCUT,QGAM] = [ 10.05, 20.36] = [ 28.30,116.06] Ry 
 Optimized for a Real-space Cutoff    1.30 Angstroem

   l    n(q)    QCUT    max X(q) W(low)/X(q) W(high)/X(q)  e(spline) 
   0      8    10.053   115.676    0.49E-03    0.72E-03    0.18E-06
   0      8    10.053    87.132    0.49E-03    0.71E-03    0.18E-06
   1      7    10.053     4.429    0.32E-03    0.31E-03    0.18E-06
   1      7    10.053     2.733    0.23E-03    0.19E-03    0.20E-06
 Optimization of the real space projectors (new method)

 maximal supplied QI-value         = 25.13
 optimisation between [QCUT,QGAM] = [ 10.05, 20.36] = [ 28.30,116.06] Ry 
 Optimized for a Real-space Cutoff    1.65 Angstroem

   l    n(q)    QCUT    max X(q) W(low)/X(q) W(high)/X(q)  e(spline) 
   0     10    10.053    79.467    0.76E-04    0.72E-04    0.56E-06
   0     10    10.053    66.151    0.76E-04    0.72E-04    0.55E-06
   1     10    10.053     8.350    0.25E-03    0.92E-03    0.41E-05
   1     10    10.053     5.531    0.27E-03    0.10E-02    0.45E-05
  PAW_PBE H 15Jun2001                   :
 energy of atom  1       EATOM=  -12.4884
 kinetic energy error for atom=    0.0098 (will be added to EATOM!!)
  PAW_PBE C 08Apr2002                   :
 energy of atom  2       EATOM= -147.1560
 kinetic energy error for atom=    0.0288 (will be added to EATOM!!)
  PAW_PBE N 08Apr2002                   :
 energy of atom  3       EATOM= -264.5486
 kinetic energy error for atom=    0.0736 (will be added to EATOM!!)
 
 
 POSCAR: H3 C2 N1                                
  positions in direct lattice
  velocities in cartesian coordinates
 exchange correlation table for  LEXCH =        8
   RHO(1)=    0.500       N(1)  =     2000
   RHO(2)=  100.500       N(2)  =     4000

 VTST: version 3.2, (02/03/18)

 CHAIN: initializing optimizer
 
 OPT: Using FIRE optimizer
 OPT: FIRE, Init
 OPT: FIRE, MAXMOVE       0.20000
 OPT: FIRE, TIMESTEP      0.10000
 OPT: FIRE, FTIMEMAX      1.00000
 OPT: FIRE, FTIMEINC      1.10000
 OPT: FIRE, FTIMEDEC      0.50000
 OPT: FIRE, FALPHADEC     0.99000
 OPT: FIRE, FALPHA        0.10000
 OPT: FIRE, FNMIN         5
 
 CHAIN: Read ICHAIN            0
 CHAIN: Running the NEB
 NEB:          SPRING     -5.000000
 NEB:          LCLIMB      T
 NEB:     LTANGENTOLD      F
 NEB:           LDNEB      F
 NEB:        LDNEBORG      F
 NEB:        LNEBCELL      F
 NEB:          EFIRST      0.000000
 NEB:           ELAST      0.000000
 
 POSCAR: H3 C2 N1                                
  positions in direct lattice
  No initial velocities read in
 
 POSCAR: H3 C2 N1                                
  positions in direct lattice
  No initial velocities read in
 


--------------------------------------------------------------------------------------------------------


 ion  position               nearest neighbor table
   1  0.471  0.464  0.502-   4 1.10
   2  0.475  0.509  0.463-   4 1.10
   3  0.468  0.521  0.521-   4 1.10
   4  0.484  0.498  0.497-   3 1.10   2 1.10   1 1.10   5 1.45
   5  0.532  0.500  0.504-   6 1.17   4 1.45
   6  0.570  0.504  0.513-   5 1.17
 
  LATTYP: Found a simple cubic cell.
 ALAT       =    30.0000000000
  
  Lattice vectors:
  
 A1 = (  30.0000000000,   0.0000000000,   0.0000000000)
 A2 = (   0.0000000000,  30.0000000000,   0.0000000000)
 A3 = (   0.0000000000,   0.0000000000,  30.0000000000)


Analysis of symmetry for initial positions (statically):
=====================================================================
 Subroutine PRICEL returns:
 Original cell was already a primitive cell.
 

 Routine SETGRP: Setting up the symmetry group for a 
 simple cubic supercell.


 Subroutine GETGRP returns: Found  1 space group operations
 (whereof  1 operations were pure point group operations)
 out of a pool of 48 trial point group operations.


The static configuration has the point symmetry C_1 .


Analysis of symmetry for dynamics (positions and initial velocities):
=====================================================================
 Subroutine PRICEL returns:
 Original cell was already a primitive cell.
 

 Routine SETGRP: Setting up the symmetry group for a 
 simple cubic supercell.


 Subroutine GETGRP returns: Found  1 space group operations
 (whereof  1 operations were pure point group operations)
 out of a pool of 48 trial point group operations.


The dynamic configuration has the point symmetry C_1 .
 
 
 KPOINTS: Mo2C                                    

Automatic generation of k-mesh.
Space group operators:
 irot       det(A)        alpha          n_x          n_y          n_z        tau_x        tau_y        tau_z
    1     1.000000     0.000000     1.000000     0.000000     0.000000     0.000000     0.000000     0.000000
 
 Subroutine IBZKPT returns following result:
 ===========================================
 
 Found      4 irreducible k-points:
 
 Following reciprocal coordinates:
            Coordinates               Weight
  0.250000  0.250000  0.250000      2.000000
 -0.250000  0.250000  0.250000      2.000000
  0.250000 -0.250000  0.250000      2.000000
 -0.250000 -0.250000  0.250000      2.000000
 
 Following cartesian coordinates:
            Coordinates               Weight
  0.008333  0.008333  0.008333      2.000000
 -0.008333  0.008333  0.008333      2.000000
  0.008333 -0.008333  0.008333      2.000000
 -0.008333 -0.008333  0.008333      2.000000
 


--------------------------------------------------------------------------------------------------------




 Dimension of arrays:
   k-points           NKPTS =      4   k-points in BZ     NKDIM =      4   number of bands    NBANDS=     12
   number of dos      NEDOS =    301   number of ions     NIONS =      6
   non local maximal  LDIM  =      4   non local SUM 2l+1 LMDIM =      8
   total plane-waves  NPLWV = ******
   max r-space proj   IRMAX =   2395   max aug-charges    IRDMAX=   1738
   dimension x,y,z NGX =   150 NGY =  150 NGZ =  150
   dimension x,y,z NGXF=   300 NGYF=  300 NGZF=  300
   support grid    NGXF=   300 NGYF=  300 NGZF=  300
   ions per type =               3   2   1
 NGX,Y,Z   is equivalent  to a cutoff of   8.31,  8.31,  8.31 a.u.
 NGXF,Y,Z  is equivalent  to a cutoff of  16.62, 16.62, 16.62 a.u.


 I would recommend the setting:
   dimension x,y,z NGX =   147 NGY =  147 NGZ =  147
 SYSTEM =  unknown system                          
 POSCAR =  H3 C2 N1                                

 Startparameter for this run:
   NWRITE =      2    write-flag & timer
   PREC   = normal    normal or accurate (medium, high low for compatibility)
   ISTART =      0    job   : 0-new  1-cont  2-samecut
   ICHARG =      2    charge: 1-file 2-atom 10-const
   ISPIN  =      1    spin polarized calculation?
   LNONCOLLINEAR =      F non collinear calculations
   LSORBIT =      F    spin-orbit coupling
   INIWAV =      1    electr: 0-lowe 1-rand  2-diag
   LASPH  =      F    aspherical Exc in radial PAW
   METAGGA=      F    non-selfconsistent MetaGGA calc.

 Electronic Relaxation 1
   ENCUT  =  400.0 eV  29.40 Ry    5.42 a.u.  48.92 48.92 48.92*2*pi/ulx,y,z
   ENINI  =  400.0     initial cutoff
   ENAUG  =  644.9 eV  augmentation charge cutoff
   NELM   =    500;   NELMIN=  6; NELMDL= -5     # of ELM steps 
   EDIFF  = 0.1E-03   stopping-criterion for ELM
   LREAL  =      T    real-space projection
   NLSPLINE    = F    spline interpolate recip. space projectors
   LCOMPAT=      F    compatible to vasp.4.4
   GGA_COMPAT  = T    GGA compatible to vasp.4.4-vasp.4.6
   LMAXPAW     = -100 max onsite density
   LMAXMIX     =    2 max onsite mixed and CHGCAR
   VOSKOWN=      0    Vosko Wilk Nusair interpolation
   ROPT   =   -0.00050  -0.00050  -0.00050
 Ionic relaxation
   EDIFFG = -.1E+00   stopping-criterion for IOM
   NSW    =    300    number of steps for IOM
   NBLOCK =      1;   KBLOCK =    300    inner block; outer block 
   IBRION =      3    ionic relax: 0-MD 1-quasi-New 2-CG
   NFREE  =      0    steps in history (QN), initial steepest desc. (CG)
   ISIF   =      2    stress and relaxation
   IWAVPR =     11    prediction:  0-non 1-charg 2-wave 3-comb
   ISYM   =      2    0-nonsym 1-usesym 2-fastsym
   LCORR  =      T    Harris-Foulkes like correction to forces

   POTIM  = 0.0000    time-step for ionic-motion
   TEIN   =    0.0    initial temperature
   TEBEG  =    0.0;   TEEND  =   0.0 temperature during run
   SMASS  =   2.00    Nose mass-parameter (am)
   estimated Nose-frequenzy (Omega)   =  0.12E+10 period in steps =  0.00 mass=   0.137E-25a.u.
   SCALEE = 1.0000    scale energy and forces
   NPACO  =    256;   APACO  = 16.0  distance and # of slots for P.C.
   PSTRESS=    0.0 pullay stress

  Mass of Ions in am
   POMASS =   1.00 12.01 14.00
  Ionic Valenz
   ZVAL   =   1.00  4.00  5.00
  Atomic Wigner-Seitz radii
   RWIGS  =  -1.00 -1.00 -1.00
  virtual crystal weights 
   VCA    =   1.00  1.00  1.00
   NELECT =      16.0000    total number of electrons
   NUPDOWN=      -1.0000    fix difference up-down

 DOS related values:
   EMIN   =  10.00;   EMAX   =-10.00  energy-range for DOS
   EFERMI =   0.00
   ISMEAR =     0;   SIGMA  =   0.20  broadening in eV -4-tet -1-fermi 0-gaus

 Electronic relaxation 2 (details)
   IALGO  =     38    algorithm
   LDIAG  =      T    sub-space diagonalisation (order eigenvalues)
   LSUBROT=      F    optimize rotation matrix (better conditioning)
   TURBO    =      0    0=normal 1=particle mesh
   IRESTART =      0    0=no restart 2=restart with 2 vectors
   NREBOOT  =      0    no. of reboots
   NMIN     =      0    reboot dimension
   EREF     =   0.00    reference energy to select bands
   IMIX   =      4    mixing-type and parameters
     AMIX     =   0.40;   BMIX     =  1.00
     AMIX_MAG =   1.60;   BMIX_MAG =  1.00
     AMIN     =   0.10
     WC   =   100.;   INIMIX=   1;  MIXPRE=   1;  MAXMIX= -45

 Intra band minimization:
   WEIMIN = 0.0010     energy-eigenvalue tresh-hold
   EBREAK =  0.21E-05  absolut break condition
   DEPER  =   0.30     relativ break condition  

   TIME   =   0.40     timestep for ELM

  volume/ion in A,a.u.               =    4500.00     30367.50
  Fermi-wavevector in a.u.,A,eV,Ry     =   0.137508  0.259852  0.257264  0.018908
  Thomas-Fermi vector in A             =   0.790710
 
 Write flags
   LWAVE  =      F    write WAVECAR
   LCHARG =      F    write CHGCAR
   LVTOT  =      F    write LOCPOT, total local potential
   LVHAR  =      F    write LOCPOT, Hartree potential only
   LELF   =      F    write electronic localiz. function (ELF)
   LORBIT =      0    0 simple, 1 ext, 2 COOP (PROOUT)


 Dipole corrections
   LMONO  =      F    monopole corrections only (constant potential shift)
   LDIPOL =      F    correct potential (dipole corrections)
   IDIPOL =      0    1-x, 2-y, 3-z, 4-all directions 
   EPSILON=  1.0000000 bulk dielectric constant

 Exchange correlation treatment:
   GGA     =    PE    GGA type
   LEXCH   =     8    internal setting for exchange type
   VOSKOWN=      0    Vosko Wilk Nusair interpolation
   LHFCALC =     F    Hartree Fock is set to
   LHFONE  =     F    Hartree Fock one center treatment
   AEXX    =    0.0000 exact exchange contribution

 Linear response parameters
   LEPSILON=     F    determine dielectric tensor
   LRPA    =     F    only Hartree local field effects (RPA)
   LNABLA  =     F    use nabla operator in PAW spheres
   LVEL    =     F    velocity operator in full k-point grid
   LINTERFAST=   F  fast interpolation
   KINTER  =     0    interpolate to denser k-point grid
   CSHIFT  =0.1000    complex shift for real part using Kramers Kronig
   OMEGAMAX=  -1.0    maximum frequency
   DEG_THRESHOLD= 0.2000000E-02 threshold for treating states as degnerate
   RTIME   =    0.100 relaxation time in fs

 Orbital magnetization related:
   ORBITALMAG=     F  switch on orbital magnetization
   LCHIMAG   =     F  perturbation theory with respect to B field
   DQ        =  0.001000  dq finite difference perturbation B field



--------------------------------------------------------------------------------------------------------


 quickmin algorithm: (dynamic with friction)
 charge density and potential will be updated during run
 non-spin polarized calculation
 Variant of blocked Davidson
 Davidson routine will perform the subspace rotation
 perform sub-space diagonalisation
    after iterative eigenvector-optimisation
 modified Broyden-mixing scheme, WC =      100.0
 initial mixing is a Kerker type mixing with AMIX =  0.4000 and BMIX =      1.0000
 Hartree-type preconditioning will be used
 using additional bands            4
 real space projection scheme for non local part
 use partial core corrections
 calculate Harris-corrections to forces 
   (improved forces if not selfconsistent)
 use gradient corrections 
 use of overlap-Matrix (Vanderbilt PP)
 Gauss-broadening in eV      SIGMA  =   0.20


--------------------------------------------------------------------------------------------------------


  energy-cutoff  :      400.00
  volume of cell :    27000.00
      direct lattice vectors                 reciprocal lattice vectors
    30.000000000  0.000000000  0.000000000     0.033333333  0.000000000  0.000000000
     0.000000000 30.000000000  0.000000000     0.000000000  0.033333333  0.000000000
     0.000000000  0.000000000 30.000000000     0.000000000  0.000000000  0.033333333

  length of vectors
    30.000000000 30.000000000 30.000000000     0.033333333  0.033333333  0.033333333


 
 k-points in units of 2pi/SCALE and weight: Mo2C                                    
   0.00833333  0.00833333  0.00833333       0.250
  -0.00833333  0.00833333  0.00833333       0.250
   0.00833333 -0.00833333  0.00833333       0.250
  -0.00833333 -0.00833333  0.00833333       0.250
 
 k-points in reciprocal lattice and weights: Mo2C                                    
   0.25000000  0.25000000  0.25000000       0.250
  -0.25000000  0.25000000  0.25000000       0.250
   0.25000000 -0.25000000  0.25000000       0.250
  -0.25000000 -0.25000000  0.25000000       0.250
 
 position of ions in fractional coordinates (direct lattice) 
   0.47090781  0.46435005  0.50202953
   0.47514523  0.50928623  0.46306957
   0.46819211  0.52077267  0.52114778
   0.48399548  0.49823804  0.49691289
   0.53178301  0.50006402  0.50445201
   0.56954022  0.50351563  0.51300435
 
 position of ions in cartesian coordinates  (Angst):
  14.12723443 13.93050151 15.06088600
  14.25435689 15.27858687 13.89208699
  14.04576341 15.62318008 15.63443355
  14.51986451 14.94714111 14.90738661
  15.95349040 15.00192070 15.13356040
  17.08620649 15.10546881 15.39013064
 


--------------------------------------------------------------------------------------------------------


 k-point  1 :   0.2500 0.2500 0.2500  plane waves:  490454
 k-point  2 :  -0.2500 0.2500 0.2500  plane waves:  490454
 k-point  3 :   0.2500-0.2500 0.2500  plane waves:  490454
 k-point  4 :  -0.2500-0.2500 0.2500  plane waves:  490454

 maximum and minimum number of plane-waves per node :    490454   490454

 maximum number of plane-waves:    490454
 maximum index in each direction: 
   IXMAX=   49   IYMAX=   49   IZMAX=   48
   IXMIN=  -49   IYMIN=  -49   IZMIN=  -49

 WARNING: aliasing errors must be expected set NGX to 198 to avoid them
 WARNING: aliasing errors must be expected set NGY to 198 to avoid them
 WARNING: aliasing errors must be expected set NGZ to 196 to avoid them
 aliasing errors are usually negligible using standard VASP settings
 and one can safely disregard these warnings

 serial   3D FFT for wavefunctions
 parallel 3D FFT for charge:
    minimum data exchange during FFTs selected (reduces bandwidth)


 total amount of memory used by VASP on root node  3203886. kBytes
========================================================================

   base      :      30000. kBytes
   nonlr-proj:        690. kBytes
   fftplans  :     924480. kBytes
   grid      :    1872000. kBytes
   one-center:         18. kBytes
   wavefun   :     376698. kBytes
 
     INWAV:  cpu time    0.0000: real time    0.0004
 Broyden mixing: mesh for mixing (old mesh)
   NGX = 97   NGY = 97   NGZ = 97
  (NGX  =300   NGY  =300   NGZ  =300)
  gives a total of 912673 points

 initial charge density was supplied:
 charge density of overlapping atoms calculated
 number of electron      16.0000000 magnetization 
 keeping initial charge density in first step


--------------------------------------------------------------------------------------------------------


 Maximum index for non-local projection operator         2264
 Maximum index for augmentation-charges         1468 (set IRDMAX)


--------------------------------------------------------------------------------------------------------


 First call to EWALD:  gamma=   0.059
 Maximum number of real-space cells 3x 3x 3
 Maximum number of reciprocal cells 3x 3x 3

 FEWALD executed in parallel
    FEWALD:  cpu time    0.0020: real time    0.0020


----------------------------------------- Iteration    1(   1)  ---------------------------------------


    POTLOK:  cpu time   25.8351: real time   25.8918
    SETDIJ:  cpu time    0.0070: real time    0.0066
     EDDAV:  cpu time  118.1730: real time  118.4327
       DOS:  cpu time    0.0000: real time    0.0003
    --------------------------------------------
      LOOP:  cpu time  144.0191: real time  144.3373

 eigenvalue-minimisations  :   160
 total energy-change (2. order) : 0.1158634E+03  (-0.2119037E+03)
 number of electron      16.0000000 magnetization 
 augmentation part       16.0000000 magnetization 

 Free energy of the ion-electron system (eV)
  ---------------------------------------------------
  alpha Z        PSCENC =         0.04144063
  Ewald energy   TEWEN  =       673.42936406
  -Hartree energ DENC   =     -1087.49604130
  -exchange      EXHF   =         0.00000000
  -V(xc)+E(xc)   XCENC  =        51.36528684
  PAW double counting   =       428.37890668     -430.73533574
  entropy T*S    EENTRO =        -0.17784214
  eigenvalues    EBANDS =      -115.10773452
  atomic energy  EATOM  =       596.16534815
  Solvation  Ediel_sol  =         0.00000000
  ---------------------------------------------------
  free energy    TOTEN  =       115.86339265 eV

  energy without entropy =      116.04123479  energy(sigma->0) =      115.95231372


--------------------------------------------------------------------------------------------------------




----------------------------------------- Iteration    1(   2)  ---------------------------------------


     EDDAV:  cpu time  143.2612: real time  143.5797
       DOS:  cpu time    0.0000: real time    0.0001
    --------------------------------------------
      LOOP:  cpu time  143.2632: real time  143.5834

 eigenvalue-minimisations  :   192
 total energy-change (2. order) :-0.1160530E+03  (-0.1130288E+03)
 number of electron      16.0000000 magnetization 
 augmentation part       16.0000000 magnetization 

 Free energy of the ion-electron system (eV)
  ---------------------------------------------------
  alpha Z        PSCENC =         0.04144063
  Ewald energy   TEWEN  =       673.42936406
  -Hartree energ DENC   =     -1087.49604130
  -exchange      EXHF   =         0.00000000
  -V(xc)+E(xc)   XCENC  =        51.36528684
  PAW double counting   =       428.37890668     -430.73533574
  entropy T*S    EENTRO =         0.00000000
  eigenvalues    EBANDS =      -231.33857277
  atomic energy  EATOM  =       596.16534815
  Solvation  Ediel_sol  =         0.00000000
  ---------------------------------------------------
  free energy    TOTEN  =        -0.18960345 eV

  energy without entropy =       -0.18960345  energy(sigma->0) =       -0.18960345


--------------------------------------------------------------------------------------------------------




----------------------------------------- Iteration    1(   3)  ---------------------------------------


     EDDAV:  cpu time  101.1456: real time  101.3719
       DOS:  cpu time    0.0000: real time    0.0001
    --------------------------------------------
      LOOP:  cpu time  101.1466: real time  101.3754

 eigenvalue-minimisations  :   120
 total energy-change (2. order) :-0.3684596E+02  (-0.3670074E+02)
 number of electron      16.0000000 magnetization 
 augmentation part       16.0000000 magnetization 

 Free energy of the ion-electron system (eV)
  ---------------------------------------------------
  alpha Z        PSCENC =         0.04144063
  Ewald energy   TEWEN  =       673.42936406
  -Hartree energ DENC   =     -1087.49604130
  -exchange      EXHF   =         0.00000000
  -V(xc)+E(xc)   XCENC  =        51.36528684
  PAW double counting   =       428.37890668     -430.73533574
  entropy T*S    EENTRO =         0.00000000
  eigenvalues    EBANDS =      -268.18452844
  atomic energy  EATOM  =       596.16534815
  Solvation  Ediel_sol  =         0.00000000
  ---------------------------------------------------
  free energy    TOTEN  =       -37.03555912 eV

  energy without entropy =      -37.03555912  energy(sigma->0) =      -37.03555912


--------------------------------------------------------------------------------------------------------




----------------------------------------- Iteration    1(   4)  ---------------------------------------


     EDDAV:  cpu time  107.7766: real time  108.0171
       DOS:  cpu time    0.0000: real time    0.0002
    --------------------------------------------
      LOOP:  cpu time  107.7796: real time  108.0212

 eigenvalue-minimisations  :   128
 total energy-change (2. order) :-0.3698472E+01  (-0.3675294E+01)
 number of electron      16.0000000 magnetization 
 augmentation part       16.0000000 magnetization 

 Free energy of the ion-electron system (eV)
  ---------------------------------------------------
  alpha Z        PSCENC =         0.04144063
  Ewald energy   TEWEN  =       673.42936406
  -Hartree energ DENC   =     -1087.49604130
  -exchange      EXHF   =         0.00000000
  -V(xc)+E(xc)   XCENC  =        51.36528684
  PAW double counting   =       428.37890668     -430.73533574
  entropy T*S    EENTRO =         0.00000000
  eigenvalues    EBANDS =      -271.88300090
  atomic energy  EATOM  =       596.16534815
  Solvation  Ediel_sol  =         0.00000000
  ---------------------------------------------------
  free energy    TOTEN  =       -40.73403159 eV

  energy without entropy =      -40.73403159  energy(sigma->0) =      -40.73403159


--------------------------------------------------------------------------------------------------------




----------------------------------------- Iteration    1(   5)  ---------------------------------------


     EDDAV:  cpu time  108.3775: real time  108.6148
       DOS:  cpu time    0.0000: real time    0.0001
    CHARGE:  cpu time    7.8778: real time    7.8955
    MIXING:  cpu time    0.7099: real time    0.7107
    --------------------------------------------
      LOOP:  cpu time  116.9652: real time  117.2252

 eigenvalue-minimisations  :   128
 total energy-change (2. order) :-0.8370652E-01  (-0.8102904E-01)
 number of electron      16.0000006 magnetization 
 augmentation part        0.5266269 magnetization 

 Broyden mixing:
  rms(total) = 0.10916E+01    rms(broyden)= 0.10909E+01
  rms(prec ) = 0.11348E+01
  weight for this iteration     100.00

 Free energy of the ion-electron system (eV)
  ---------------------------------------------------
  alpha Z        PSCENC =         0.04144063
  Ewald energy   TEWEN  =       673.42936406
  -Hartree energ DENC   =     -1087.49604130
  -exchange      EXHF   =         0.00000000
  -V(xc)+E(xc)   XCENC  =        51.36528684
  PAW double counting   =       428.37890668     -430.73533574
  entropy T*S    EENTRO =         0.00000000
  eigenvalues    EBANDS =      -271.96670742
  atomic energy  EATOM  =       596.16534815
  Solvation  Ediel_sol  =         0.00000000
  ---------------------------------------------------
  free energy    TOTEN  =       -40.81773811 eV

  energy without entropy =      -40.81773811  energy(sigma->0) =      -40.81773811


--------------------------------------------------------------------------------------------------------




----------------------------------------- Iteration    1(   6)  ---------------------------------------


    POTLOK:  cpu time   27.6688: real time   27.7484
    SETDIJ:  cpu time    0.0060: real time    0.0065
     EDDAV:  cpu time   99.9098: real time  100.2138
       DOS:  cpu time    0.0000: real time    0.0002
    CHARGE:  cpu time    8.9306: real time    8.9515
    MIXING:  cpu time    0.9259: real time    0.9280
    --------------------------------------------
      LOOP:  cpu time  137.4441: real time  137.8529

 eigenvalue-minimisations  :   116
 total energy-change (2. order) : 0.3283918E+01  (-0.6543528E+00)
 number of electron      16.0000001 magnetization 
 augmentation part        0.4539048 magnetization 

 Broyden mixing:
  rms(total) = 0.59384E+00    rms(broyden)= 0.59360E+00
  rms(prec ) = 0.60989E+00
  weight for this iteration     100.00

 eigenvalues of (default mixing * dielectric matrix)
  average eigenvalue GAMMA=   1.2607
  1.2607

 Free energy of the ion-electron system (eV)
  ---------------------------------------------------
  alpha Z        PSCENC =         0.04144063
  Ewald energy   TEWEN  =       673.42936406
  -Hartree energ DENC   =     -1119.44743107
  -exchange      EXHF   =         0.00000000
  -V(xc)+E(xc)   XCENC  =        53.15640922
  PAW double counting   =       731.60346242     -734.28739053
  entropy T*S    EENTRO =         0.00000000
  eigenvalues    EBANDS =      -238.19502261
  atomic energy  EATOM  =       596.16534815
  Solvation  Ediel_sol  =         0.00000000
  ---------------------------------------------------
  free energy    TOTEN  =       -37.53381973 eV

  energy without entropy =      -37.53381973  energy(sigma->0) =      -37.53381973


--------------------------------------------------------------------------------------------------------




----------------------------------------- Iteration    1(   7)  ---------------------------------------


    POTLOK:  cpu time   28.8386: real time   28.9038
    SETDIJ:  cpu time    0.0070: real time    0.0065
     EDDAV:  cpu time   99.6598: real time   99.8806
       DOS:  cpu time    0.0000: real time    0.0002
    CHARGE:  cpu time    7.9538: real time    7.9732
    MIXING:  cpu time    0.8459: real time    0.8474
    --------------------------------------------
      LOOP:  cpu time  137.3061: real time  137.6161

 eigenvalue-minimisations  :   116
 total energy-change (2. order) : 0.6618162E+00  (-0.1400514E+00)
 number of electron      16.0000002 magnetization 
 augmentation part        0.4556113 magnetization 

 Broyden mixing:
  rms(total) = 0.30092E+00    rms(broyden)= 0.30087E+00
  rms(prec ) = 0.30898E+00
  weight for this iteration     100.00

 eigenvalues of (default mixing * dielectric matrix)
  average eigenvalue GAMMA=   1.4482
  0.9095  1.9869

 Free energy of the ion-electron system (eV)
  ---------------------------------------------------
  alpha Z        PSCENC =         0.04144063
  Ewald energy   TEWEN  =       673.42936406
  -Hartree energ DENC   =     -1136.43525083
  -exchange      EXHF   =         0.00000000
  -V(xc)+E(xc)   XCENC  =        54.08394270
  PAW double counting   =      1038.01106358    -1040.80727332
  entropy T*S    EENTRO =         0.00000000
  eigenvalues    EBANDS =      -221.36063852
  atomic energy  EATOM  =       596.16534815
  Solvation  Ediel_sol  =         0.00000000
  ---------------------------------------------------
  free energy    TOTEN  =       -36.87200356 eV

  energy without entropy =      -36.87200356  energy(sigma->0) =      -36.87200356


--------------------------------------------------------------------------------------------------------




----------------------------------------- Iteration    1(   8)  ---------------------------------------


    POTLOK:  cpu time   26.4930: real time   26.5534
    SETDIJ:  cpu time    0.0060: real time    0.0068
     EDDAV:  cpu time  108.6945: real time  108.9370
       DOS:  cpu time    0.0000: real time    0.0002
    CHARGE:  cpu time    8.3597: real time    8.3791
    MIXING:  cpu time    1.1708: real time    1.1732
    --------------------------------------------
      LOOP:  cpu time  144.7270: real time  145.0548

 eigenvalue-minimisations  :   128
 total energy-change (2. order) : 0.1734861E+00  (-0.4204934E-01)
 number of electron      16.0000001 magnetization 
 augmentation part        0.4362750 magnetization 

 Broyden mixing:
  rms(total) = 0.10849E+00    rms(broyden)= 0.10845E+00
  rms(prec ) = 0.11300E+00
  weight for this iteration     100.00

 eigenvalues of (default mixing * dielectric matrix)
  average eigenvalue GAMMA=   1.4576
  2.1588  1.4587  0.7554

 Free energy of the ion-electron system (eV)
  ---------------------------------------------------
  alpha Z        PSCENC =         0.04144063
  Ewald energy   TEWEN  =       673.42936406
  -Hartree energ DENC   =     -1147.26760345
  -exchange      EXHF   =         0.00000000
  -V(xc)+E(xc)   XCENC  =        54.77646059
  PAW double counting   =      1295.10858740    -1297.95885975
  entropy T*S    EENTRO =         0.00000000
  eigenvalues    EBANDS =      -210.99325508
  atomic energy  EATOM  =       596.16534815
  Solvation  Ediel_sol  =         0.00000000
  ---------------------------------------------------
  free energy    TOTEN  =       -36.69851746 eV

  energy without entropy =      -36.69851746  energy(sigma->0) =      -36.69851746


--------------------------------------------------------------------------------------------------------




----------------------------------------- Iteration    1(   9)  ---------------------------------------


    POTLOK:  cpu time   29.5095: real time   29.5753
    SETDIJ:  cpu time    0.0060: real time    0.0068
     EDDAV:  cpu time  108.2495: real time  108.4887
       DOS:  cpu time    0.0000: real time    0.0002
    CHARGE:  cpu time    8.0408: real time    8.0588
    MIXING:  cpu time    1.0518: real time    1.0545
    --------------------------------------------
      LOOP:  cpu time  146.8587: real time  147.1889

 eigenvalue-minimisations  :   128
 total energy-change (2. order) : 0.2549143E-01  (-0.3445547E-02)
 number of electron      16.0000001 magnetization 
 augmentation part        0.4374638 magnetization 

 Broyden mixing:
  rms(total) = 0.33155E-01    rms(broyden)= 0.33141E-01
  rms(prec ) = 0.38885E-01
  weight for this iteration     100.00

 eigenvalues of (default mixing * dielectric matrix)
  average eigenvalue GAMMA=   1.4524
  2.2936  1.6646  0.8056  1.0458

 Free energy of the ion-electron system (eV)
  ---------------------------------------------------
  alpha Z        PSCENC =         0.04144063
  Ewald energy   TEWEN  =       673.42936406
  -Hartree energ DENC   =     -1149.01095425
  -exchange      EXHF   =         0.00000000
  -V(xc)+E(xc)   XCENC  =        54.87917079
  PAW double counting   =      1368.96797169    -1371.78920181
  entropy T*S    EENTRO =         0.00000000
  eigenvalues    EBANDS =      -209.35616530
  atomic energy  EATOM  =       596.16534815
  Solvation  Ediel_sol  =         0.00000000
  ---------------------------------------------------
  free energy    TOTEN  =       -36.67302603 eV

  energy without entropy =      -36.67302603  energy(sigma->0) =      -36.67302603


--------------------------------------------------------------------------------------------------------




----------------------------------------- Iteration    1(  10)  ---------------------------------------


    POTLOK:  cpu time   26.2730: real time   26.3325
    SETDIJ:  cpu time    0.0060: real time    0.0066
     EDDAV:  cpu time  109.0954: real time  109.3478
       DOS:  cpu time    0.0000: real time    0.0002
    CHARGE:  cpu time    8.1628: real time    8.1809
    MIXING:  cpu time    1.0978: real time    1.1004
    --------------------------------------------
      LOOP:  cpu time  144.6360: real time  144.9730

 eigenvalue-minimisations  :   128
 total energy-change (2. order) : 0.4453754E-02  (-0.4783813E-03)
 number of electron      16.0000001 magnetization 
 augmentation part        0.4383885 magnetization 

 Broyden mixing:
  rms(total) = 0.14558E-01    rms(broyden)= 0.14553E-01
  rms(prec ) = 0.21010E-01
  weight for this iteration     100.00

 eigenvalues of (default mixing * dielectric matrix)
  average eigenvalue GAMMA=   1.4624
  2.1738  2.1738  1.3386  0.8129  0.8129

 Free energy of the ion-electron system (eV)
  ---------------------------------------------------
  alpha Z        PSCENC =         0.04144063
  Ewald energy   TEWEN  =       673.42936406
  -Hartree energ DENC   =     -1150.26991063
  -exchange      EXHF   =         0.00000000
  -V(xc)+E(xc)   XCENC  =        54.91991086
  PAW double counting   =      1384.59246228    -1387.40205073
  entropy T*S    EENTRO =         0.00000000
  eigenvalues    EBANDS =      -208.14513689
  atomic energy  EATOM  =       596.16534815
  Solvation  Ediel_sol  =         0.00000000
  ---------------------------------------------------
  free energy    TOTEN  =       -36.66857228 eV

  energy without entropy =      -36.66857228  energy(sigma->0) =      -36.66857228


--------------------------------------------------------------------------------------------------------




----------------------------------------- Iteration    1(  11)  ---------------------------------------


    POTLOK:  cpu time   27.3118: real time   27.3731
    SETDIJ:  cpu time    0.0070: real time    0.0066
     EDDAV:  cpu time  108.9824: real time  109.2265
       DOS:  cpu time    0.0000: real time    0.0002
    CHARGE:  cpu time    8.8267: real time    8.8468
    MIXING:  cpu time    1.2978: real time    1.3002
    --------------------------------------------
      LOOP:  cpu time  146.4277: real time  146.7578

 eigenvalue-minimisations  :   128
 total energy-change (2. order) :-0.1112818E-02  (-0.1809688E-03)
 number of electron      16.0000001 magnetization 
 augmentation part        0.4379939 magnetization 

 Broyden mixing:
  rms(total) = 0.95248E-02    rms(broyden)= 0.95234E-02
  rms(prec ) = 0.14681E-01
  weight for this iteration     100.00

 eigenvalues of (default mixing * dielectric matrix)
  average eigenvalue GAMMA=   1.7282
  3.1970  2.4821  1.4955  1.4955  0.8494  0.8494

 Free energy of the ion-electron system (eV)
  ---------------------------------------------------
  alpha Z        PSCENC =         0.04144063
  Ewald energy   TEWEN  =       673.42936406
  -Hartree energ DENC   =     -1151.38646918
  -exchange      EXHF   =         0.00000000
  -V(xc)+E(xc)   XCENC  =        54.94516768
  PAW double counting   =      1381.34609211    -1384.15076224
  entropy T*S    EENTRO =         0.00000000
  eigenvalues    EBANDS =      -207.05986630
  atomic energy  EATOM  =       596.16534815
  Solvation  Ediel_sol  =         0.00000000
  ---------------------------------------------------
  free energy    TOTEN  =       -36.66968509 eV

  energy without entropy =      -36.66968509  energy(sigma->0) =      -36.66968509


--------------------------------------------------------------------------------------------------------




----------------------------------------- Iteration    1(  12)  ---------------------------------------


    POTLOK:  cpu time   27.1419: real time   27.2313
    SETDIJ:  cpu time    0.0070: real time    0.0066
     EDDAV:  cpu time   97.7211: real time   98.0439
       DOS:  cpu time    0.0000: real time    0.0002
    CHARGE:  cpu time    7.7928: real time    7.8189
    MIXING:  cpu time    1.2538: real time    1.2579
    --------------------------------------------
      LOOP:  cpu time  133.9176: real time  134.3640

 eigenvalue-minimisations  :   112
 total energy-change (2. order) :-0.6674216E-02  (-0.4922121E-03)
 number of electron      16.0000001 magnetization 
 augmentation part        0.4373446 magnetization 

 Broyden mixing:
  rms(total) = 0.49710E-02    rms(broyden)= 0.49630E-02
  rms(prec ) = 0.72163E-02
  weight for this iteration     100.00

 eigenvalues of (default mixing * dielectric matrix)
  average eigenvalue GAMMA=   1.7211
  3.7697  2.2657  1.8228  1.4069  0.8137  0.9187  1.0505

 Free energy of the ion-electron system (eV)
  ---------------------------------------------------
  alpha Z        PSCENC =         0.04144063
  Ewald energy   TEWEN  =       673.42936406
  -Hartree energ DENC   =     -1153.17595037
  -exchange      EXHF   =         0.00000000
  -V(xc)+E(xc)   XCENC  =        54.98186243
  PAW double counting   =      1374.68756330    -1377.48736875
  entropy T*S    EENTRO =         0.00000000
  eigenvalues    EBANDS =      -205.31861876
  atomic energy  EATOM  =       596.16534815
  Solvation  Ediel_sol  =         0.00000000
  ---------------------------------------------------
  free energy    TOTEN  =       -36.67635931 eV

  energy without entropy =      -36.67635931  energy(sigma->0) =      -36.67635931


--------------------------------------------------------------------------------------------------------




----------------------------------------- Iteration    1(  13)  ---------------------------------------


    POTLOK:  cpu time   26.8859: real time   26.9765
    SETDIJ:  cpu time    0.0070: real time    0.0067
     EDDAV:  cpu time  131.3440: real time  131.6651
       DOS:  cpu time    0.0000: real time    0.0002
    CHARGE:  cpu time    7.5858: real time    7.6019
    MIXING:  cpu time    1.3778: real time    1.3814
    --------------------------------------------
      LOOP:  cpu time  167.2026: real time  167.6361

 eigenvalue-minimisations  :   160
 total energy-change (2. order) :-0.4210621E-02  (-0.1200528E-03)
 number of electron      16.0000001 magnetization 
 augmentation part        0.4371775 magnetization 

 Broyden mixing:
  rms(total) = 0.36066E-02    rms(broyden)= 0.36041E-02
  rms(prec ) = 0.52713E-02
  weight for this iteration     100.00

 eigenvalues of (default mixing * dielectric matrix)
  average eigenvalue GAMMA=   1.7409
  4.3020  2.3746  1.5977  1.5405  1.5405  0.8744  0.8744  0.8234

 Free energy of the ion-electron system (eV)
  ---------------------------------------------------
  alpha Z        PSCENC =         0.04144063
  Ewald energy   TEWEN  =       673.42936406
  -Hartree energ DENC   =     -1153.58289543
  -exchange      EXHF   =         0.00000000
  -V(xc)+E(xc)   XCENC  =        54.98691561
  PAW double counting   =      1375.73895871    -1378.53961347
  entropy T*S    EENTRO =         0.00000000
  eigenvalues    EBANDS =      -204.92008820
  atomic energy  EATOM  =       596.16534815
  Solvation  Ediel_sol  =         0.00000000
  ---------------------------------------------------
  free energy    TOTEN  =       -36.68056993 eV

  energy without entropy =      -36.68056993  energy(sigma->0) =      -36.68056993


--------------------------------------------------------------------------------------------------------




----------------------------------------- Iteration    1(  14)  ---------------------------------------


    POTLOK:  cpu time   26.2510: real time   26.3098
    SETDIJ:  cpu time    0.0070: real time    0.0066
     EDDAV:  cpu time  107.8296: real time  108.0611
       DOS:  cpu time    0.0000: real time    0.0002
    CHARGE:  cpu time    7.5948: real time    7.6123
    MIXING:  cpu time    1.5018: real time    1.5049
    --------------------------------------------
      LOOP:  cpu time  143.1872: real time  143.4999

 eigenvalue-minimisations  :   128
 total energy-change (2. order) :-0.4274759E-02  (-0.5726080E-04)
 number of electron      16.0000001 magnetization 
 augmentation part        0.4372995 magnetization 

 Broyden mixing:
  rms(total) = 0.24877E-02    rms(broyden)= 0.24872E-02
  rms(prec ) = 0.35068E-02
  weight for this iteration     100.00

 eigenvalues of (default mixing * dielectric matrix)
  average eigenvalue GAMMA=   1.8756
  5.2166  2.8224  2.3247  1.4968  1.4547  0.8452  0.8452  0.9373  0.9373

 Free energy of the ion-electron system (eV)
  ---------------------------------------------------
  alpha Z        PSCENC =         0.04144063
  Ewald energy   TEWEN  =       673.42936406
  -Hartree energ DENC   =     -1153.74856095
  -exchange      EXHF   =         0.00000000
  -V(xc)+E(xc)   XCENC  =        54.97875976
  PAW double counting   =      1373.89039894    -1376.69086350
  entropy T*S    EENTRO =         0.00000000
  eigenvalues    EBANDS =      -204.75073177
  atomic energy  EATOM  =       596.16534815
  Solvation  Ediel_sol  =         0.00000000
  ---------------------------------------------------
  free energy    TOTEN  =       -36.68484469 eV

  energy without entropy =      -36.68484469  energy(sigma->0) =      -36.68484469


--------------------------------------------------------------------------------------------------------




----------------------------------------- Iteration    1(  15)  ---------------------------------------


    POTLOK:  cpu time   25.5331: real time   25.5878
    SETDIJ:  cpu time    0.0070: real time    0.0068
     EDDAV:  cpu time  103.7732: real time  103.9911
       DOS:  cpu time    0.0000: real time    0.0002
    CHARGE:  cpu time    7.4339: real time    7.4483
    MIXING:  cpu time    1.4958: real time    1.4995
    --------------------------------------------
      LOOP:  cpu time  138.2440: real time  138.5373

 eigenvalue-minimisations  :   128
 total energy-change (2. order) :-0.3107914E-02  (-0.3068839E-04)
 number of electron      16.0000001 magnetization 
 augmentation part        0.4372422 magnetization 

 Broyden mixing:
  rms(total) = 0.15773E-02    rms(broyden)= 0.15772E-02
  rms(prec ) = 0.21519E-02
  weight for this iteration     100.00

 eigenvalues of (default mixing * dielectric matrix)
  average eigenvalue GAMMA=   1.9745
  6.0807  3.1257  2.3104  1.6015  1.4924  1.4924  0.8400  0.8660  0.9682  0.9682

 Free energy of the ion-electron system (eV)
  ---------------------------------------------------
  alpha Z        PSCENC =         0.04144063
  Ewald energy   TEWEN  =       673.42936406
  -Hartree energ DENC   =     -1153.86155007
  -exchange      EXHF   =         0.00000000
  -V(xc)+E(xc)   XCENC  =        54.97444037
  PAW double counting   =      1373.77586475    -1376.57697013
  entropy T*S    EENTRO =         0.00000000
  eigenvalues    EBANDS =      -204.63589037
  atomic energy  EATOM  =       596.16534815
  Solvation  Ediel_sol  =         0.00000000
  ---------------------------------------------------
  free energy    TOTEN  =       -36.68795260 eV

  energy without entropy =      -36.68795260  energy(sigma->0) =      -36.68795260


--------------------------------------------------------------------------------------------------------




----------------------------------------- Iteration    1(  16)  ---------------------------------------


    POTLOK:  cpu time   25.1772: real time   25.2307
    SETDIJ:  cpu time    0.0070: real time    0.0065
     EDDAV:  cpu time  100.7447: real time  100.9527
       DOS:  cpu time    0.0000: real time    0.0002
    CHARGE:  cpu time    7.4799: real time    7.4956
    MIXING:  cpu time    1.7417: real time    1.7465
    --------------------------------------------
      LOOP:  cpu time  135.1525: real time  135.4361

 eigenvalue-minimisations  :   128
 total energy-change (2. order) :-0.2182093E-02  (-0.2624888E-04)
 number of electron      16.0000001 magnetization 
 augmentation part        0.4371149 magnetization 

 Broyden mixing:
  rms(total) = 0.11039E-02    rms(broyden)= 0.11027E-02
  rms(prec ) = 0.13681E-02
  weight for this iteration     100.00

 eigenvalues of (default mixing * dielectric matrix)
  average eigenvalue GAMMA=   2.1058
  7.1759  3.6467  2.3629  2.3151  1.4724  1.2853  1.2853  0.8321  0.8699  0.9590
  0.9590

 Free energy of the ion-electron system (eV)
  ---------------------------------------------------
  alpha Z        PSCENC =         0.04144063
  Ewald energy   TEWEN  =       673.42936406
  -Hartree energ DENC   =     -1153.92281988
  -exchange      EXHF   =         0.00000000
  -V(xc)+E(xc)   XCENC  =        54.97187405
  PAW double counting   =      1374.07363769    -1376.87466278
  entropy T*S    EENTRO =         0.00000000
  eigenvalues    EBANDS =      -204.57431661
  atomic energy  EATOM  =       596.16534815
  Solvation  Ediel_sol  =         0.00000000
  ---------------------------------------------------
  free energy    TOTEN  =       -36.69013470 eV

  energy without entropy =      -36.69013470  energy(sigma->0) =      -36.69013470


--------------------------------------------------------------------------------------------------------




----------------------------------------- Iteration    1(  17)  ---------------------------------------


    POTLOK:  cpu time   25.6391: real time   25.6930
    SETDIJ:  cpu time    0.0070: real time    0.0066
     EDDAV:  cpu time   76.1804: real time   76.3381
       DOS:  cpu time    0.0000: real time    0.0002
    CHARGE:  cpu time    7.4729: real time    7.4883
    MIXING:  cpu time    1.7837: real time    1.7884
    --------------------------------------------
      LOOP:  cpu time  111.0841: real time  111.3189

 eigenvalue-minimisations  :    88
 total energy-change (2. order) :-0.9968980E-03  (-0.5072370E-05)
 number of electron      16.0000001 magnetization 
 augmentation part        0.4371677 magnetization 

 Broyden mixing:
  rms(total) = 0.39840E-03    rms(broyden)= 0.39831E-03
  rms(prec ) = 0.57669E-03
  weight for this iteration     100.00

 eigenvalues of (default mixing * dielectric matrix)
  average eigenvalue GAMMA=   2.1547
  7.7668  4.0604  2.5812  2.0004  1.9517  1.3178  1.3178  0.8285  0.8888  0.9658
  1.0885  1.0885

 Free energy of the ion-electron system (eV)
  ---------------------------------------------------
  alpha Z        PSCENC =         0.04144063
  Ewald energy   TEWEN  =       673.42936406
  -Hartree energ DENC   =     -1153.92185191
  -exchange      EXHF   =         0.00000000
  -V(xc)+E(xc)   XCENC  =        54.96904277
  PAW double counting   =      1374.46855908    -1377.26925322
  entropy T*S    EENTRO =         0.00000000
  eigenvalues    EBANDS =      -204.57378115
  atomic energy  EATOM  =       596.16534815
  Solvation  Ediel_sol  =         0.00000000
  ---------------------------------------------------
  free energy    TOTEN  =       -36.69113160 eV

  energy without entropy =      -36.69113160  energy(sigma->0) =      -36.69113160


--------------------------------------------------------------------------------------------------------




----------------------------------------- Iteration    1(  18)  ---------------------------------------


    POTLOK:  cpu time   25.9481: real time   26.0038
    SETDIJ:  cpu time    0.0070: real time    0.0065
     EDDAV:  cpu time   72.6440: real time   72.7947
       DOS:  cpu time    0.0000: real time    0.0002
    CHARGE:  cpu time    7.1089: real time    7.1227
    MIXING:  cpu time    1.8337: real time    1.8370
    --------------------------------------------
      LOOP:  cpu time  107.5437: real time  107.7683

 eigenvalue-minimisations  :    84
 total energy-change (2. order) :-0.4773960E-03  (-0.2972277E-05)
 number of electron      16.0000001 magnetization 
 augmentation part        0.4371530 magnetization 

 Broyden mixing:
  rms(total) = 0.29293E-03    rms(broyden)= 0.29287E-03
  rms(prec ) = 0.38389E-03
  weight for this iteration     100.00

 eigenvalues of (default mixing * dielectric matrix)
  average eigenvalue GAMMA=   2.2526
  8.2899  4.7176  2.8618  2.5875  2.0812  1.5438  1.2927  1.2927  0.8265  0.9069
  0.9069  0.9885  0.9885

 Free energy of the ion-electron system (eV)
  ---------------------------------------------------
  alpha Z        PSCENC =         0.04144063
  Ewald energy   TEWEN  =       673.42936406
  -Hartree energ DENC   =     -1153.92746548
  -exchange      EXHF   =         0.00000000
  -V(xc)+E(xc)   XCENC  =        54.96869656
  PAW double counting   =      1374.48277948    -1377.28357989
  entropy T*S    EENTRO =         0.00000000
  eigenvalues    EBANDS =      -204.56819249
  atomic energy  EATOM  =       596.16534815
  Solvation  Ediel_sol  =         0.00000000
  ---------------------------------------------------
  free energy    TOTEN  =       -36.69160899 eV

  energy without entropy =      -36.69160899  energy(sigma->0) =      -36.69160899


--------------------------------------------------------------------------------------------------------




----------------------------------------- Iteration    1(  19)  ---------------------------------------


    POTLOK:  cpu time   25.2972: real time   25.3499
    SETDIJ:  cpu time    0.0060: real time    0.0065
     EDDAV:  cpu time   70.3183: real time   70.4649
       DOS:  cpu time    0.0000: real time    0.0002
    CHARGE:  cpu time    7.0479: real time    7.0619
    MIXING:  cpu time    1.9837: real time    1.9879
    --------------------------------------------
      LOOP:  cpu time  104.6541: real time  104.8751

 eigenvalue-minimisations  :    80
 total energy-change (2. order) :-0.2796429E-03  (-0.1361960E-05)
 number of electron      16.0000001 magnetization 
 augmentation part        0.4371476 magnetization 

 Broyden mixing:
  rms(total) = 0.17280E-03    rms(broyden)= 0.17269E-03
  rms(prec ) = 0.21319E-03
  weight for this iteration     100.00

 eigenvalues of (default mixing * dielectric matrix)
  average eigenvalue GAMMA=   2.2810
  8.5440  5.1386  3.2056  2.3929  2.1379  1.9642  1.3948  1.2620  1.2620  1.0003
  1.0003  0.8280  0.9020  0.9020

 Free energy of the ion-electron system (eV)
  ---------------------------------------------------
  alpha Z        PSCENC =         0.04144063
  Ewald energy   TEWEN  =       673.42936406
  -Hartree energ DENC   =     -1153.92093896
  -exchange      EXHF   =         0.00000000
  -V(xc)+E(xc)   XCENC  =        54.96802848
  PAW double counting   =      1374.22021618    -1377.02096815
  entropy T*S    EENTRO =         0.00000000
  eigenvalues    EBANDS =      -204.57437902
  atomic energy  EATOM  =       596.16534815
  Solvation  Ediel_sol  =         0.00000000
  ---------------------------------------------------
  free energy    TOTEN  =       -36.69188863 eV

  energy without entropy =      -36.69188863  energy(sigma->0) =      -36.69188863


--------------------------------------------------------------------------------------------------------




----------------------------------------- Iteration    1(  20)  ---------------------------------------


    POTLOK:  cpu time   24.2433: real time   24.2944
    SETDIJ:  cpu time    0.0060: real time    0.0064
     EDDAV:  cpu time   63.2034: real time   63.3327
       DOS:  cpu time    0.0000: real time    0.0002
    CHARGE:  cpu time    6.4180: real time    6.4298
    MIXING:  cpu time    1.9867: real time    1.9904
    --------------------------------------------
      LOOP:  cpu time   95.8594: real time   96.0570

 eigenvalue-minimisations  :    80
 total energy-change (2. order) :-0.1062466E-03  (-0.3464563E-06)
 number of electron      16.0000001 magnetization 
 augmentation part        0.4371520 magnetization 

 Broyden mixing:
  rms(total) = 0.13898E-03    rms(broyden)= 0.13896E-03
  rms(prec ) = 0.15842E-03
  weight for this iteration     100.00

 eigenvalues of (default mixing * dielectric matrix)
  average eigenvalue GAMMA=   2.3164
  8.7078  5.6937  3.3974  2.5368  2.5368  2.0916  1.5848  1.2853  1.2853  1.0143
  1.0143  0.8289  0.8817  0.9433  0.9433

 Free energy of the ion-electron system (eV)
  ---------------------------------------------------
  alpha Z        PSCENC =         0.04144063
  Ewald energy   TEWEN  =       673.42936406
  -Hartree energ DENC   =     -1153.92322195
  -exchange      EXHF   =         0.00000000
  -V(xc)+E(xc)   XCENC  =        54.96792305
  PAW double counting   =      1374.26240891    -1377.06314969
  entropy T*S    EENTRO =         0.00000000
  eigenvalues    EBANDS =      -204.57210803
  atomic energy  EATOM  =       596.16534815
  Solvation  Ediel_sol  =         0.00000000
  ---------------------------------------------------
  free energy    TOTEN  =       -36.69199488 eV

  energy without entropy =      -36.69199488  energy(sigma->0) =      -36.69199488


--------------------------------------------------------------------------------------------------------




----------------------------------------- Iteration    1(  21)  ---------------------------------------


    POTLOK:  cpu time   20.8998: real time   20.9422
    SETDIJ:  cpu time    0.0060: real time    0.0064
     EDDAV:  cpu time   52.3100: real time   52.4120
       DOS:  cpu time    0.0000: real time    0.0002
    --------------------------------------------
      LOOP:  cpu time   73.2169: real time   73.3640

 eigenvalue-minimisations  :    80
 total energy-change (2. order) :-0.5132641E-04  (-0.1397467E-06)
 number of electron      16.0000001 magnetization 
 augmentation part        0.4371520 magnetization 

 Free energy of the ion-electron system (eV)
  ---------------------------------------------------
  alpha Z        PSCENC =         0.04144063
  Ewald energy   TEWEN  =       673.42936406
  -Hartree energ DENC   =     -1153.92448424
  -exchange      EXHF   =         0.00000000
  -V(xc)+E(xc)   XCENC  =        54.96783863
  PAW double counting   =      1374.26567992    -1377.06646246
  entropy T*S    EENTRO =         0.00000000
  eigenvalues    EBANDS =      -204.57077090
  atomic energy  EATOM  =       596.16534815
  Solvation  Ediel_sol  =         0.00000000
  ---------------------------------------------------
  free energy    TOTEN  =       -36.69204621 eV

  energy without entropy =      -36.69204621  energy(sigma->0) =      -36.69204621


--------------------------------------------------------------------------------------------------------




 average (electrostatic) potential at core
  the test charge radii are     0.5201  0.6991  0.7089
  (the norm of the test charge is              1.0000)
       1 -43.1587       2 -43.1596       3 -43.1631       4 -60.0809       5 -60.0703
       6 -73.2240
 
 
 
 E-fermi :  -7.1148     XC(G=0):  -0.0878     alpha+bet : -0.0137


 k-point     1 :       0.2500    0.2500    0.2500
  band No.  band energies     occupation 
      1     -22.5327      2.00000
      2     -19.3750      2.00000
      3     -12.8225      2.00000
      4     -11.4803      2.00000
      5     -11.4560      2.00000
      6      -8.4960      2.00000
      7      -8.0764      2.00000
      8      -8.0464      2.00000
      9      -0.8590      0.00000
     10      -0.4827      0.00000
     11      -0.4497      0.00000
     12      -0.0086      0.00000

 k-point     2 :      -0.2500    0.2500    0.2500
  band No.  band energies     occupation 
      1     -22.5327      2.00000
      2     -19.3750      2.00000
      3     -12.8225      2.00000
      4     -11.4803      2.00000
      5     -11.4560      2.00000
      6      -8.4960      2.00000
      7      -8.0764      2.00000
      8      -8.0464      2.00000
      9      -0.8590      0.00000
     10      -0.4827      0.00000
     11      -0.4497      0.00000
     12      -0.0097      0.00000

 k-point     3 :       0.2500   -0.2500    0.2500
  band No.  band energies     occupation 
      1     -22.5327      2.00000
      2     -19.3750      2.00000
      3     -12.8225      2.00000
      4     -11.4803      2.00000
      5     -11.4560      2.00000
      6      -8.4960      2.00000
      7      -8.0764      2.00000
      8      -8.0464      2.00000
      9      -0.8590      0.00000
     10      -0.4827      0.00000
     11      -0.4497      0.00000
     12      -0.0092      0.00000

 k-point     4 :      -0.2500   -0.2500    0.2500
  band No.  band energies     occupation 
      1     -22.5327      2.00000
      2     -19.3750      2.00000
      3     -12.8225      2.00000
      4     -11.4803      2.00000
      5     -11.4560      2.00000
      6      -8.4960      2.00000
      7      -8.0764      2.00000
      8      -8.0464      2.00000
      9      -0.8590      0.00000
     10      -0.4827      0.00000
     11      -0.4497      0.00000
     12      -0.0095      0.00000


--------------------------------------------------------------------------------------------------------


 soft charge-density along one line, spin component           1
         0         1         2         3         4         5         6         7         8         9
 total charge-density along one line
 
 pseudopotential strength for first ion, spin component:           1
 -2.364  -4.078  -0.002   0.000  -0.001
 -4.078  -6.948  -0.005   0.001  -0.002
 -0.002  -0.005  -0.330  -0.001   0.002
  0.000   0.001  -0.001  -0.334   0.000
 -0.001  -0.002   0.002   0.000  -0.333
 total augmentation occupancy for first ion, spin component:           1
  3.476  -0.626   0.402  -0.060   0.158
 -0.626   0.128  -0.074   0.011  -0.029
  0.402  -0.074   0.048  -0.006   0.016
 -0.060   0.011  -0.006   0.010  -0.003
  0.158  -0.029   0.016  -0.003   0.013


------------------------ aborting loop because EDIFF is reached ----------------------------------------


    CHARGE:  cpu time    5.0702: real time    5.0801
    FORLOC:  cpu time    2.3216: real time    2.3268
    FORNL :  cpu time   16.1445: real time   16.1762
    STRESS:  cpu time   48.4266: real time   48.5207
    FORCOR:  cpu time   19.5430: real time   19.5773
    FORHAR:  cpu time    6.3520: real time    6.3635
    MIXING:  cpu time    1.1228: real time    1.1251
    OFIELD:  cpu time    0.0010: real time    0.0001

  FORCE on cell =-STRESS in cart. coord.  units (eV):
  Direction    XX          YY          ZZ          XY          YZ          ZX
  --------------------------------------------------------------------------------------
  Alpha Z     0.04144     0.04144     0.04144
  Ewald     576.32603    39.23082    57.87230    37.20419     7.96058   106.49455
  Hartree   575.57290   284.48585   293.86726    18.13641     3.73406    54.93959
  E(xc)     -59.02853   -60.31427   -60.26398     0.10544     0.02311     0.27711
  Local   -1296.05300  -496.35907  -523.13475   -52.63588   -11.09640  -154.81707
  n-local   -28.00978   -24.81382   -24.97145    -0.35580    -0.10381    -0.81499
  augment     0.41666     0.39200     0.38872    -0.00729    -0.00028    -0.00823
  Kinetic   230.03406   256.31535   255.15960    -2.56059    -0.54548    -6.19164
  Fock        0.00000     0.00000     0.00000     0.00000     0.00000     0.00000
  -------------------------------------------------------------------------------------
  Total      -0.70024    -1.02169    -1.04087    -0.11352    -0.02822    -0.12068
  in kB      -0.04155    -0.06063    -0.06177    -0.00674    -0.00167    -0.00716
  external pressure =       -0.05 kB  Pullay stress =        0.00 kB


 VOLUME and BASIS-vectors are now :
 -----------------------------------------------------------------------------
  energy-cutoff  :      400.00
  volume of cell :    27000.00
      direct lattice vectors                 reciprocal lattice vectors
    30.000000000  0.000000000  0.000000000     0.033333333  0.000000000  0.000000000
     0.000000000 30.000000000  0.000000000     0.000000000  0.033333333  0.000000000
     0.000000000  0.000000000 30.000000000     0.000000000  0.000000000  0.033333333

  length of vectors
    30.000000000 30.000000000 30.000000000     0.033333333  0.033333333  0.033333333


 FORCES acting on ions
    electron-ion (+dipol)            ewald-force                    non-local-force                 convergence-correction
 -----------------------------------------------------------------------------------------------
   0.326E+02 0.555E+02 -.620E+01   -.346E+02 -.606E+02 0.697E+01   0.203E+01 0.514E+01 -.770E+00   0.793E-04 0.828E-04 0.537E-06
   0.257E+02 -.172E+02 0.568E+02   -.270E+02 0.189E+02 -.619E+02   0.140E+01 -.167E+01 0.514E+01   0.660E-04 -.271E-04 0.870E-04
   0.384E+02 -.363E+02 -.375E+02   -.410E+02 0.396E+02 0.411E+02   0.241E+01 -.343E+01 -.368E+01   0.860E-04 -.620E-04 -.505E-04
   0.955E+02 0.607E+01 0.182E+02   -.100E+03 -.630E+01 -.190E+02   0.443E+01 0.255E+00 0.807E+00   0.399E-03 -.235E-04 0.109E-03
   0.622E+02 0.135E+02 0.242E+02   -.643E+02 -.139E+02 -.249E+02   0.198E+01 0.452E+00 0.795E+00   -.126E-02 -.980E-04 -.225E-03
   -.227E+03 -.186E+02 -.487E+02   0.267E+03 0.223E+02 0.577E+02   -.393E+02 -.377E+01 -.913E+01   -.368E-03 -.539E-04 -.902E-04
 -----------------------------------------------------------------------------------------------
   0.271E+02 0.303E+01 0.684E+01   0.000E+00 -.711E-14 0.000E+00   -.271E+02 -.303E+01 -.684E+01   -.999E-03 -.182E-03 -.169E-03
 
 
 POSITION                                       TOTAL-FORCE (eV/Angst)
 -----------------------------------------------------------------------------------
     14.12723     13.93050     15.06089         0.064523      0.039281     -0.001212
     14.25436     15.27859     13.89209         0.077118     -0.014286      0.042021
     14.04576     15.62318     15.63443        -0.135188     -0.033236     -0.048842
     14.51986     14.94714     14.90739        -0.053191      0.032194      0.038014
     15.95349     15.00192     15.13356        -0.064247      0.050250      0.052902
     17.08621     15.10547     15.39013         0.110985     -0.074202     -0.082883
 -----------------------------------------------------------------------------------
    total drift:                               -0.012666      0.001165     -0.000470


--------------------------------------------------------------------------------------------------------



  FREE ENERGIE OF THE ION-ELECTRON SYSTEM (eV)
  ---------------------------------------------------
  free  energy   TOTEN  =       -36.69204621 eV

  energy  without entropy=      -36.69204621  energy(sigma->0) =      -36.69204621
 


--------------------------------------------------------------------------------------------------------


    POTLOK:  cpu time   15.2337: real time   15.2612


--------------------------------------------------------------------------------------------------------


 NEB: the previous image is higher in energy: T
 NEB: the next image is higher in energy    : T
 NEB: image is at an extrema
 NEB: diff energy (min, max):     0.000565    0.213807

 NEB: Tangent
 ----------------------------------------------
      0.10571      0.00023     -0.09699
      0.22186      0.04187      0.04164
     -0.49116     -0.03749      0.00981
     -0.00704      0.10444      0.14574
     -0.04218      0.19070      0.38040
      0.33431     -0.50161     -0.32488

 NEB: forces: par spring, perp REAL, dneb     0.012594    0.139539    0.000000
 NEB: distance to prev, next image, angle between     0.313654    0.316173  135.561229
 NEB: projections on to tangent (spring, REAL)     0.012594    0.235319

 stress matrix after NEB project (eV)
     -0.70024     -0.11352     -0.12068
     -0.11352     -1.02169     -0.02822
     -0.12068     -0.02822     -1.04087
  FORCES: max atom, RMS     0.063890    0.057198
  FORCE total and by dimension    0.140106    0.054852
  Stress total and by dimension    1.635263    1.040869
 
 OPT: Flag T
 OPT: FIRE Step
 OPT: FIRE, TIMESTEP      0.10000
 OPT: FIRE, alpha         0.10000


--------------------------------------------------------------------------------------------------------


    WAVPRE:  cpu time    7.4769: real time    7.4938
 FEWALD executed in parallel
    FEWALD:  cpu time    0.0000: real time    0.0004
    ORTHCH:  cpu time    5.9371: real time    5.9495
     LOOP+:  cpu time 2808.2791: real time 2814.7489


----------------------------------------- Iteration    2(   1)  ---------------------------------------


    POTLOK:  cpu time   21.2178: real time   21.2665
    SETDIJ:  cpu time    0.0070: real time    0.0064
     EDDAV:  cpu time   78.2301: real time   78.4129
       DOS:  cpu time    0.0000: real time    0.0002
    CHARGE:  cpu time    6.0691: real time    6.0839
    MIXING:  cpu time    0.5349: real time    0.5360
    --------------------------------------------
      LOOP:  cpu time  106.0599: real time  106.3083

 eigenvalue-minimisations  :   112
 total energy-change (2. order) :-0.2331505E-03  (-0.3651187E-03)
 number of electron      16.0000001 magnetization 
 augmentation part        0.4368428 magnetization 

 Broyden mixing:
  rms(total) = 0.21623E-02    rms(broyden)= 0.21571E-02
  rms(prec ) = 0.22130E-02
  weight for this iteration     100.00

 Free energy of the ion-electron system (eV)
  ---------------------------------------------------
  alpha Z        PSCENC =         0.04144063
  Ewald energy   TEWEN  =       673.32669483
  -Hartree energ DENC   =     -1153.85779070
  -exchange      EXHF   =         0.00000000
  -V(xc)+E(xc)   XCENC  =        54.96711882
  PAW double counting   =      1374.24819926    -1377.04898439
  entropy T*S    EENTRO =         0.00000000
  eigenvalues    EBANDS =      -204.53425464
  atomic energy  EATOM  =       596.16534815
  Solvation  Ediel_sol  =         0.00000000
  ---------------------------------------------------
  free energy    TOTEN  =       -36.69222803 eV

  energy without entropy =      -36.69222803  energy(sigma->0) =      -36.69222803


--------------------------------------------------------------------------------------------------------




----------------------------------------- Iteration    2(   2)  ---------------------------------------


    POTLOK:  cpu time   18.4492: real time   18.4922
    SETDIJ:  cpu time    0.0060: real time    0.0065
     EDDAV:  cpu time   72.1290: real time   72.2977
       DOS:  cpu time    0.0000: real time    0.0002
    CHARGE:  cpu time    6.8940: real time    6.9107
    MIXING:  cpu time    0.6839: real time    0.6847
    --------------------------------------------
      LOOP:  cpu time   98.1631: real time   98.3965

 eigenvalue-minimisations  :    96
 total energy-change (2. order) :-0.7608265E-06  (-0.6247343E-05)
 number of electron      16.0000001 magnetization 
 augmentation part        0.4368586 magnetization 

 Broyden mixing:
  rms(total) = 0.12933E-02    rms(broyden)= 0.12924E-02
  rms(prec ) = 0.13238E-02
  weight for this iteration     100.00

 eigenvalues of (default mixing * dielectric matrix)
  average eigenvalue GAMMA=   1.4426
  1.4426

 Free energy of the ion-electron system (eV)
  ---------------------------------------------------
  alpha Z        PSCENC =         0.04144063
  Ewald energy   TEWEN  =       673.32669483
  -Hartree energ DENC   =     -1153.83826450
  -exchange      EXHF   =         0.00000000
  -V(xc)+E(xc)   XCENC  =        54.96600702
  PAW double counting   =      1373.85579111    -1376.65617630
  entropy T*S    EENTRO =         0.00000000
  eigenvalues    EBANDS =      -204.55306973
  atomic energy  EATOM  =       596.16534815
  Solvation  Ediel_sol  =         0.00000000
  ---------------------------------------------------
  free energy    TOTEN  =       -36.69222879 eV

  energy without entropy =      -36.69222879  energy(sigma->0) =      -36.69222879


--------------------------------------------------------------------------------------------------------




----------------------------------------- Iteration    2(   3)  ---------------------------------------


[...]
  Solvation  Ediel_sol  =         0.00000000
  ---------------------------------------------------
  free energy    TOTEN  =       -36.70337645 eV

  energy without entropy =      -36.70337645  energy(sigma->0) =      -36.70337645


--------------------------------------------------------------------------------------------------------




----------------------------------------- Iteration   28(   2)  ---------------------------------------


    POTLOK:  cpu time   19.5430: real time   19.5888
    SETDIJ:  cpu time    0.0060: real time    0.0066
     EDDAV:  cpu time   77.3322: real time   77.5164
       DOS:  cpu time    0.0000: real time    0.0002
    CHARGE:  cpu time    6.3790: real time    6.3940
    MIXING:  cpu time    0.6739: real time    0.6765
    --------------------------------------------
      LOOP:  cpu time  103.9382: real time  104.1869

 eigenvalue-minimisations  :   128
 total energy-change (2. order) :-0.5728225E-04  (-0.1426781E-03)
 number of electron      16.0000007 magnetization 
 augmentation part        0.4368931 magnetization 

 Broyden mixing:
  rms(total) = 0.52018E-02    rms(broyden)= 0.51923E-02
  rms(prec ) = 0.52717E-02
  weight for this iteration     100.00

 eigenvalues of (default mixing * dielectric matrix)
  average eigenvalue GAMMA=   1.5586
  1.5586

 Free energy of the ion-electron system (eV)
  ---------------------------------------------------
  alpha Z        PSCENC =         0.04144063
  Ewald energy   TEWEN  =       672.83317773
  -Hartree energ DENC   =     -1153.34150143
  -exchange      EXHF   =         0.00000000
  -V(xc)+E(xc)   XCENC  =        54.96238947
  PAW double counting   =      1372.81769320    -1375.61731779
  entropy T*S    EENTRO =         0.00000000
  eigenvalues    EBANDS =      -204.56466369
  atomic energy  EATOM  =       596.16534815
  Solvation  Ediel_sol  =         0.00000000
  ---------------------------------------------------
  free energy    TOTEN  =       -36.70343373 eV

  energy without entropy =      -36.70343373  energy(sigma->0) =      -36.70343373


--------------------------------------------------------------------------------------------------------




----------------------------------------- Iteration   28(   3)  ---------------------------------------


    POTLOK:  cpu time   22.5876: real time   22.6402
    SETDIJ:  cpu time    0.0070: real time    0.0068
     EDDAV:  cpu time   61.0707: real time   61.2152
       DOS:  cpu time    0.0000: real time    0.0002
    CHARGE:  cpu time    5.7881: real time    5.8019
    MIXING:  cpu time    0.7469: real time    0.7492
    --------------------------------------------
      LOOP:  cpu time   90.2033: real time   90.4180

 eigenvalue-minimisations  :    96
 total energy-change (2. order) :-0.1996821E-04  (-0.5004585E-05)
 number of electron      16.0000007 magnetization 
 augmentation part        0.4368688 magnetization 

 Broyden mixing:
  rms(total) = 0.16590E-02    rms(broyden)= 0.16580E-02
  rms(prec ) = 0.16823E-02
  weight for this iteration     100.00

 eigenvalues of (default mixing * dielectric matrix)
  average eigenvalue GAMMA=   1.6227
  0.9722  2.2732

 Free energy of the ion-electron system (eV)
  ---------------------------------------------------
  alpha Z        PSCENC =         0.04144063
  Ewald energy   TEWEN  =       672.83317773
  -Hartree energ DENC   =     -1153.33936137
  -exchange      EXHF   =         0.00000000
  -V(xc)+E(xc)   XCENC  =        54.96234967
  PAW double counting   =      1372.78859604    -1375.58825725
  entropy T*S    EENTRO =         0.00000000
  eigenvalues    EBANDS =      -204.56674730
  atomic energy  EATOM  =       596.16534815
  Solvation  Ediel_sol  =         0.00000000
  ---------------------------------------------------
  free energy    TOTEN  =       -36.70345370 eV

  energy without entropy =      -36.70345370  energy(sigma->0) =      -36.70345370


--------------------------------------------------------------------------------------------------------




----------------------------------------- Iteration   28(   4)  ---------------------------------------


    POTLOK:  cpu time   20.1979: real time   20.2448
    SETDIJ:  cpu time    0.0060: real time    0.0064
     EDDAV:  cpu time   48.9636: real time   49.0787
       DOS:  cpu time    0.0000: real time    0.0002
    CHARGE:  cpu time    6.6900: real time    6.7065
    MIXING:  cpu time    0.8179: real time    0.8198
    --------------------------------------------
      LOOP:  cpu time   76.6773: real time   76.8607

 eigenvalue-minimisations  :    64
 total energy-change (2. order) :-0.1519916E-04  (-0.1682137E-05)
 number of electron      16.0000007 magnetization 
 augmentation part        0.4368913 magnetization 

 Broyden mixing:
  rms(total) = 0.46549E-03    rms(broyden)= 0.46498E-03
  rms(prec ) = 0.47882E-03
  weight for this iteration     100.00

 eigenvalues of (default mixing * dielectric matrix)
  average eigenvalue GAMMA=   1.4981
  2.3249  1.0847  1.0847

 Free energy of the ion-electron system (eV)
  ---------------------------------------------------
  alpha Z        PSCENC =         0.04144063
  Ewald energy   TEWEN  =       672.83317773
  -Hartree energ DENC   =     -1153.33748869
  -exchange      EXHF   =         0.00000000
  -V(xc)+E(xc)   XCENC  =        54.96215931
  PAW double counting   =      1372.76424790    -1375.56393435
  entropy T*S    EENTRO =         0.00000000
  eigenvalues    EBANDS =      -204.56841958
  atomic energy  EATOM  =       596.16534815
  Solvation  Ediel_sol  =         0.00000000
  ---------------------------------------------------
  free energy    TOTEN  =       -36.70346890 eV

  energy without entropy =      -36.70346890  energy(sigma->0) =      -36.70346890


--------------------------------------------------------------------------------------------------------




----------------------------------------- Iteration   28(   5)  ---------------------------------------


    POTLOK:  cpu time   20.2939: real time   20.3411
    SETDIJ:  cpu time    0.0060: real time    0.0066
     EDDAV:  cpu time   38.0892: real time   38.1782
       DOS:  cpu time    0.0000: real time    0.0002
    CHARGE:  cpu time    5.9861: real time    6.0000
    MIXING:  cpu time    0.7799: real time    0.7825
    --------------------------------------------
      LOOP:  cpu time   65.1571: real time   65.3141

 eigenvalue-minimisations  :    48
 total energy-change (2. order) :-0.1124228E-05  (-0.2922710E-06)
 number of electron      16.0000007 magnetization 
 augmentation part        0.4368836 magnetization 

 Broyden mixing:
  rms(total) = 0.28491E-03    rms(broyden)= 0.28482E-03
  rms(prec ) = 0.29525E-03
  weight for this iteration     100.00

 eigenvalues of (default mixing * dielectric matrix)
  average eigenvalue GAMMA=   1.5902
  2.4705  1.8861  1.1676  0.8365

 Free energy of the ion-electron system (eV)
  ---------------------------------------------------
  alpha Z        PSCENC =         0.04144063
  Ewald energy   TEWEN  =       672.83317773
  -Hartree energ DENC   =     -1153.33855408
  -exchange      EXHF   =         0.00000000
  -V(xc)+E(xc)   XCENC  =        54.96221646
  PAW double counting   =      1372.74773172    -1375.54746188
  entropy T*S    EENTRO =         0.00000000
  eigenvalues    EBANDS =      -204.56736875
  atomic energy  EATOM  =       596.16534815
  Solvation  Ediel_sol  =         0.00000000
  ---------------------------------------------------
  free energy    TOTEN  =       -36.70347002 eV

  energy without entropy =      -36.70347002  energy(sigma->0) =      -36.70347002


--------------------------------------------------------------------------------------------------------




----------------------------------------- Iteration   28(   6)  ---------------------------------------


    POTLOK:  cpu time   19.9940: real time   20.0404
    SETDIJ:  cpu time    0.0060: real time    0.0064
     EDDAV:  cpu time   48.0157: real time   48.1247
       DOS:  cpu time    0.0000: real time    0.0002
    --------------------------------------------
      LOOP:  cpu time   68.0177: real time   68.1752

 eigenvalue-minimisations  :    64
 total energy-change (2. order) :-0.1580874E-05  (-0.8574466E-07)
 number of electron      16.0000007 magnetization 
 augmentation part        0.4368836 magnetization 

 Free energy of the ion-electron system (eV)
  ---------------------------------------------------
  alpha Z        PSCENC =         0.04144063
  Ewald energy   TEWEN  =       672.83317773
  -Hartree energ DENC   =     -1153.33897534
  -exchange      EXHF   =         0.00000000
  -V(xc)+E(xc)   XCENC  =        54.96221678
  PAW double counting   =      1372.71891327    -1375.51867371
  entropy T*S    EENTRO =         0.00000000
  eigenvalues    EBANDS =      -204.56691911
  atomic energy  EATOM  =       596.16534815
  Solvation  Ediel_sol  =         0.00000000
  ---------------------------------------------------
  free energy    TOTEN  =       -36.70347160 eV

  energy without entropy =      -36.70347160  energy(sigma->0) =      -36.70347160


--------------------------------------------------------------------------------------------------------




 average (electrostatic) potential at core
  the test charge radii are     0.5201  0.6991  0.7089
  (the norm of the test charge is              1.0000)
       1 -43.1643       2 -43.1652       3 -43.1667       4 -60.0805       5 -60.0737
       6 -73.2271
 
 
 
 E-fermi :  -7.0935     XC(G=0):  -0.0615     alpha+bet : -0.0137


 k-point     1 :       0.2500    0.2500    0.2500
  band No.  band energies     occupation 
      1     -22.5249      2.00000
      2     -19.3730      2.00000
      3     -12.8304      2.00000
      4     -11.4713      2.00000
      5     -11.4591      2.00000
      6      -8.4952      2.00000
      7      -8.0676      2.00000
      8      -8.0619      2.00000
      9      -0.8366      0.00000
     10      -0.4752      0.00000
     11      -0.4663      0.00000
     12       0.0195      0.00000

 k-point     2 :      -0.2500    0.2500    0.2500
  band No.  band energies     occupation 
      1     -22.5249      2.00000
      2     -19.3730      2.00000
      3     -12.8304      2.00000
      4     -11.4713      2.00000
      5     -11.4591      2.00000
      6      -8.4952      2.00000
      7      -8.0676      2.00000
      8      -8.0619      2.00000
      9      -0.8366      0.00000
     10      -0.4752      0.00000
     11      -0.4663      0.00000
     12       0.0190      0.00000

 k-point     3 :       0.2500   -0.2500    0.2500
  band No.  band energies     occupation 
      1     -22.5249      2.00000
      2     -19.3730      2.00000
      3     -12.8304      2.00000
      4     -11.4713      2.00000
      5     -11.4591      2.00000
      6      -8.4952      2.00000
      7      -8.0676      2.00000
      8      -8.0619      2.00000
      9      -0.8366      0.00000
     10      -0.4752      0.00000
     11      -0.4663      0.00000
     12       0.0199      0.00000

 k-point     4 :      -0.2500   -0.2500    0.2500
  band No.  band energies     occupation 
      1     -22.5249      2.00000
      2     -19.3730      2.00000
      3     -12.8304      2.00000
      4     -11.4713      2.00000
      5     -11.4591      2.00000
      6      -8.4952      2.00000
      7      -8.0676      2.00000
      8      -8.0619      2.00000
      9      -0.8366      0.00000
     10      -0.4752      0.00000
     11      -0.4663      0.00000
     12       0.0197      0.00000


--------------------------------------------------------------------------------------------------------


 soft charge-density along one line, spin component           1
         0         1         2         3         4         5         6         7         8         9
 total charge-density along one line
 
 pseudopotential strength for first ion, spin component:           1
 -2.364  -4.078  -0.002   0.000  -0.001
 -4.078  -6.948  -0.005   0.001  -0.002
 -0.002  -0.005  -0.330  -0.001   0.002
  0.000   0.001  -0.001  -0.334   0.000
 -0.001  -0.002   0.002   0.000  -0.333
 total augmentation occupancy for first ion, spin component:           1
  3.478  -0.626   0.407  -0.059   0.149
 -0.626   0.128  -0.075   0.011  -0.027
  0.407  -0.075   0.049  -0.006   0.015
 -0.059   0.011  -0.006   0.010  -0.002
  0.149  -0.027   0.015  -0.002   0.013


------------------------ aborting loop because EDIFF is reached ----------------------------------------


    CHARGE:  cpu time    5.7801: real time    5.7938
    FORLOC:  cpu time    2.3596: real time    2.3653
    FORNL :  cpu time   17.5783: real time   17.6189
    STRESS:  cpu time   54.0638: real time   54.1859
    FORCOR:  cpu time   17.8683: real time   17.9050
    FORHAR:  cpu time    6.1891: real time    6.2006
    MIXING:  cpu time    0.6639: real time    0.6659
    OFIELD:  cpu time    0.0000: real time    0.0000

  FORCE on cell =-STRESS in cart. coord.  units (eV):
  Direction    XX          YY          ZZ          XY          YZ          ZX
  --------------------------------------------------------------------------------------
  Alpha Z     0.04144     0.04144     0.04144
  Ewald     582.09055    38.11001    52.63238    30.88344     5.51695    93.84110
  Hartree   577.75492   283.94620   291.63648    16.14398     2.83275    49.91069
  E(xc)     -59.00135   -60.31319   -60.27688     0.07885     0.01445     0.23229
  Local   -1303.38666  -494.81358  -516.19154   -45.18730    -8.00902  -138.47409
  n-local   -28.09247   -24.80199   -24.89311    -0.21889    -0.04619    -0.61371
  augment     0.41153     0.39365     0.39391    -0.00104     0.00018     0.00036
  Kinetic   229.24285   256.46544   255.68521    -1.73564    -0.32264    -4.94204
  Fock        0.00000     0.00000     0.00000     0.00000     0.00000     0.00000
  -------------------------------------------------------------------------------------
  Total      -0.93919    -0.97203    -0.97210    -0.03662    -0.01352    -0.04540
  in kB      -0.05573    -0.05768    -0.05768    -0.00217    -0.00080    -0.00269
  external pressure =       -0.06 kB  Pullay stress =        0.00 kB


 VOLUME and BASIS-vectors are now :
 -----------------------------------------------------------------------------
  energy-cutoff  :      400.00
  volume of cell :    27000.00
      direct lattice vectors                 reciprocal lattice vectors
    30.000000000  0.000000000  0.000000000     0.033333333  0.000000000  0.000000000
     0.000000000 30.000000000  0.000000000     0.000000000  0.033333333  0.000000000
     0.000000000  0.000000000 30.000000000     0.000000000  0.000000000  0.033333333

  length of vectors
    30.000000000 30.000000000 30.000000000     0.033333333  0.033333333  0.033333333


 FORCES acting on ions
    electron-ion (+dipol)            ewald-force                    non-local-force                 convergence-correction
 -----------------------------------------------------------------------------------------------
   0.315E+02 0.562E+02 -.612E+01   -.334E+02 -.614E+02 0.688E+01   0.191E+01 0.520E+01 -.749E+00   -.835E-04 0.228E-03 0.175E-03
   0.247E+02 -.163E+02 0.575E+02   -.260E+02 0.179E+02 -.627E+02   0.127E+01 -.158E+01 0.521E+01   -.800E-04 0.157E-03 0.244E-03
   0.402E+02 -.356E+02 -.362E+02   -.430E+02 0.389E+02 0.397E+02   0.268E+01 -.338E+01 -.356E+01   0.481E-04 0.124E-03 0.141E-03
   0.952E+02 0.530E+01 0.163E+02   -.996E+02 -.553E+01 -.170E+02   0.443E+01 0.240E+00 0.748E+00   -.486E-03 0.982E-03 0.101E-02
   0.649E+02 0.585E+01 0.139E+02   -.670E+02 -.604E+01 -.143E+02   0.206E+01 0.187E+00 0.443E+00   0.271E-04 0.141E-02 0.154E-02
   -.229E+03 -.137E+02 -.403E+02   0.269E+03 0.161E+02 0.475E+02   -.398E+02 -.251E+01 -.717E+01   0.471E-04 0.217E-02 0.233E-02
 -----------------------------------------------------------------------------------------------
   0.275E+02 0.183E+01 0.507E+01   0.000E+00 0.711E-14 -.711E-14   -.275E+02 -.184E+01 -.508E+01   -.527E-03 0.507E-02 0.543E-02
 
 
 POSITION                                       TOTAL-FORCE (eV/Angst)
 -----------------------------------------------------------------------------------
     14.14853     13.93058     15.06711         0.026201      0.015743      0.004561
     14.27376     15.26871     13.89144         0.028120      0.001956      0.017104
     13.99434     15.62256     15.62023        -0.029656     -0.010912     -0.016440
     14.51582     14.95643     14.91779         0.002087      0.010381      0.010505
     15.94898     15.02721     15.15201        -0.037251      0.003919      0.002387
     17.09523     15.09813     15.35697         0.010499     -0.021087     -0.018117
 -----------------------------------------------------------------------------------
    total drift:                               -0.006995     -0.004235      0.004628


--------------------------------------------------------------------------------------------------------



  FREE ENERGIE OF THE ION-ELECTRON SYSTEM (eV)
  ---------------------------------------------------
  free  energy   TOTEN  =       -36.70347160 eV

  energy  without entropy=      -36.70347160  energy(sigma->0) =      -36.70347160
 
 d Force = 0.6189094E-03[ 0.488E-03, 0.750E-03]  d Energy = 0.6170610E-03 0.185E-05
 d Force = 0.8951971E-01[ 0.983E-01, 0.807E-01]  d Ewald  = 0.8951684E-01 0.287E-05


--------------------------------------------------------------------------------------------------------


    POTLOK:  cpu time   15.6336: real time   15.6654


--------------------------------------------------------------------------------------------------------


 NEB: the previous image is higher in energy: T
 NEB: the next image is higher in energy    : F
 NEB: only prev energy greater

 NEB: Tangent
 ----------------------------------------------
      0.10116      0.03776     -0.08084
      0.23252      0.09117      0.06962
     -0.48024     -0.01930      0.01885
     -0.00964      0.13479      0.16081
     -0.01581      0.13646      0.31663
      0.28839     -0.55978     -0.35137

 NEB: forces: par spring, perp REAL, dneb     0.112124    0.056719    0.000000
 NEB: distance to prev, next image, angle between     0.307918    0.330342  108.385896
 NEB: projections on to tangent (spring, REAL)     0.112124    0.051072

 stress matrix after NEB project (eV)
     -0.93919     -0.03662     -0.04540
     -0.03662     -0.97203     -0.01352
     -0.04540     -0.01352     -0.97210
  FORCES: max atom, RMS     0.073549    0.051298
  FORCE total and by dimension    0.125653    0.058975
  Stress total and by dimension    1.667059    0.972103
 OPT: skip step - force has converged


--------------------------------------------------------------------------------------------------------


  
 reached required accuracy - stopping structural energy minimisation
     LOOP+:  cpu time  739.1686: real time  740.8239
    4ORBIT:  cpu time    0.0000: real time    0.0000

 total amount of memory used by VASP on root node  3203886. kBytes
========================================================================

   base      :      30000. kBytes
   nonlr-proj:        690. kBytes
   fftplans  :     924480. kBytes
   grid      :    1872000. kBytes
   one-center:         18. kBytes
   wavefun   :     376698. kBytes
 
  
  
 General timing and accounting informations for this job:
 ========================================================
  
                  Total CPU time used (sec):    22543.830
                            User time (sec):    22249.733
                          System time (sec):      294.097
                         Elapsed time (sec):    22605.867
  
                   Maximum memory used (kb):     4782728.
                   Average memory used (kb):           0.
  
                          Minor page faults:      2440762
                          Major page faults:            7
                 Voluntary context switches:         3731
