unknown system                          
           1
    30.000000    0.000000    0.000000
     0.000000   30.000000    0.000000
     0.000000    0.000000   30.000000
   H    C    N 
   3   2   1
Direct configuration=     1
   0.47092147  0.46436313  0.50203633
   0.47515446  0.50927836  0.46308048
   0.46818352  0.52076437  0.52113078
   0.48397828  0.49824101  0.49691474
   0.53176473  0.50006662  0.50444141
   0.56955239  0.50352813  0.51300085
Direct configuration=     2
   0.47094596  0.46438306  0.50204990
   0.47517141  0.50926439  0.46309673
   0.46815997  0.52075234  0.52110191
   0.48395172  0.49824645  0.49691778
   0.53176917  0.50007783  0.50443369
   0.56953930  0.50354629  0.51298239
Direct configuration=     3
   0.47097695  0.46439957  0.50207065
   0.47519316  0.50924690  0.46310866
   0.46811420  0.52074381  0.52106911
   0.48393935  0.49825381  0.49692315
   0.53176063  0.50009832  0.50442676
   0.56952814  0.50356947  0.51295203
Direct configuration=     4
   0.47101133  0.46440530  0.50209635
   0.47521876  0.50922841  0.46310957
   0.46804068  0.52074280  0.52103848
   0.48394851  0.49826366  0.49693242
   0.53172976  0.50013058  0.50442666
   0.56953339  0.50359070  0.51290865
Direct configuration=     5
   0.47104951  0.46439951  0.50212425
   0.47524964  0.50920931  0.46309864
   0.46793725  0.52074833  0.52101015
   0.48396264  0.49827697  0.49694621
   0.53172543  0.50018104  0.50444988
   0.56952525  0.50360020  0.51284146
Direct configuration=     6
   0.47109443  0.46438599  0.50215232
   0.47528793  0.50918775  0.46307909
   0.46780803  0.52075626  0.52097974
   0.48396747  0.49829521  0.49696651
   0.53171190  0.50024716  0.50448994
   0.56954510  0.50360034  0.51275882
Direct configuration=     7
   0.47115577  0.46436959  0.50218085
   0.47534234  0.50915832  0.46305587
   0.46763896  0.52076229  0.52093843
   0.48394560  0.49832237  0.49699617
   0.53169245  0.50033846  0.50455534
   0.56959983  0.50358721  0.51264938
Direct configuration=     8
   0.47123865  0.46435628  0.50220697
   0.47541839  0.50911718  0.46303715
   0.46742136  0.52076367  0.52088232
   0.48389377  0.49836045  0.49703602
   0.53171875  0.50046268  0.50466154
   0.56963970  0.50355059  0.51249628
Direct configuration=     9
   0.47133983  0.46434639  0.50223465
   0.47550643  0.50905982  0.46302336
   0.46717469  0.52076419  0.52081268
   0.48387157  0.49840455  0.49708508
   0.53160604  0.50059578  0.50475135
   0.56977800  0.50352845  0.51234557
Direct configuration=    10
   0.47134305  0.46434771  0.50223436
   0.47550922  0.50905753  0.46302499
   0.46716585  0.52076426  0.52081073
   0.48386830  0.49840536  0.49708582
   0.53168128  0.50060449  0.50476849
   0.56970785  0.50352148  0.51232705
Direct configuration=    11
   0.47134372  0.46434791  0.50223457
   0.47550943  0.50905679  0.46302519
   0.46716521  0.52076430  0.52081017
   0.48386984  0.49840538  0.49708603
   0.53167894  0.50060472  0.50476777
   0.56970787  0.50352263  0.51232705
Direct configuration=    12
   0.47134508  0.46434832  0.50223500
   0.47550985  0.50905529  0.46302558
   0.46716395  0.52076437  0.52080904
   0.48387279  0.49840541  0.49708642
   0.53167472  0.50060521  0.50476640
   0.56970751  0.50352492  0.51232698
Direct configuration=    13
   0.47134714  0.46434894  0.50223566
   0.47551049  0.50905302  0.46302617
   0.46716207  0.52076445  0.52080730
   0.48387687  0.49840546  0.49708696
   0.53166951  0.50060604  0.50476456
   0.56970613  0.50352834  0.51232670
Direct configuration=    14
   0.47134991  0.46434977  0.50223655
   0.47551135  0.50904999  0.46302696
   0.46715959  0.52076452  0.52080493
   0.48388164  0.49840553  0.49708762
   0.53166442  0.50060730  0.50476248
   0.56970301  0.50353279  0.51232604
Direct configuration=    15
   0.47135337  0.46435079  0.50223766
   0.47551246  0.50904624  0.46302792
   0.46715656  0.52076457  0.52080195
   0.48388653  0.49840562  0.49708835
   0.53166033  0.50060907  0.50476037
   0.56969785  0.50353817  0.51232489
Direct configuration=    16
   0.47135751  0.46435197  0.50223899
   0.47551382  0.50904181  0.46302902
   0.46715299  0.52076455  0.52079835
   0.48389105  0.49840576  0.49708911
   0.53165751  0.50061137  0.50475836
   0.56969085  0.50354438  0.51232323
Direct configuration=    17
   0.47136294  0.46435343  0.50224073
   0.47551569  0.50903611  0.46303036
   0.46714831  0.52076445  0.52079361
   0.48389514  0.49840602  0.49708999
   0.53165539  0.50061462  0.50475626
   0.56968189  0.50355220  0.51232083
Direct configuration=    18
   0.47137006  0.46435512  0.50224296
   0.47551835  0.50902887  0.46303190
   0.46714191  0.52076422  0.52078745
   0.48389813  0.49840651  0.49709109
   0.53165265  0.50061912  0.50475406
   0.56967267  0.50356184  0.51231757
Direct configuration=    19
   0.47137907  0.46435691  0.50224564
   0.47552217  0.50902015  0.46303351
   0.46713286  0.52076389  0.52077986
   0.48389949  0.49840747  0.49709261
   0.53164762  0.50062522  0.50475208
   0.56966584  0.50357277  0.51231319
Direct configuration=    20
   0.47139033  0.46435858  0.50224845
   0.47552800  0.50901022  0.46303508
   0.46711887  0.52076346  0.52077096
   0.48389875  0.49840939  0.49709513
   0.53164006  0.50063376  0.50475187
   0.56966350  0.50358292  0.51230633
Direct configuration=    21
   0.47140451  0.46435996  0.50225087
   0.47553744  0.50899961  0.46303662
   0.46709588  0.52076292  0.52076094
   0.48389544  0.49841319  0.49709972
   0.53163201  0.50064631  0.50475646
   0.56966660  0.50358841  0.51229404
Direct configuration=    22
   0.47142266  0.46436084  0.50225216
   0.47555282  0.50898905  0.46303819
   0.46705797  0.52076226  0.52075003
   0.48388923  0.49842022  0.49710800
   0.53162711  0.50066511  0.50477029
   0.56967536  0.50358363  0.51227185
Direct configuration=    23
   0.47144562  0.46436063  0.50225212
   0.47557572  0.50897894  0.46303938
   0.46700076  0.52076163  0.52073832
   0.48388040  0.49843149  0.49712116
   0.53162826  0.50069203  0.50479647
   0.56968894  0.50356508  0.51223644
Direct configuration=    24
   0.47147449  0.46435883  0.50225062
   0.47560809  0.50896992  0.46303985
   0.46691914  0.52076113  0.52072587
   0.48387099  0.49844824  0.49714091
   0.53163244  0.50072853  0.50483716
   0.56971086  0.50352910  0.51218494
Direct configuration=    25
   0.47151081  0.46435544  0.50224763
   0.47565233  0.50896268  0.46303977
   0.46680801  0.52076042  0.52071222
   0.48386442  0.49847184  0.49716927
   0.53163099  0.50077579  0.50489361
   0.56974804  0.50347202  0.51211496
Direct configuration=    26
   0.47155720  0.46435199  0.50224315
   0.47571210  0.50895813  0.46304106
   0.46666202  0.52075829  0.52069603
   0.48386188  0.49850430  0.49720824
   0.53162671  0.50083504  0.50496914
   0.56979633  0.50338810  0.51202153
Direct configuration=    27
   0.47161760  0.46435260  0.50223715
   0.47579204  0.50895717  0.46304800
   0.46647803  0.52075216  0.52067441
   0.48386063  0.49854756  0.49725979
   0.53163251  0.50090696  0.50506714
   0.56984104  0.50327097  0.51189894
Direct configuration=    28
   0.47161760  0.46435260  0.50223715
   0.47579204  0.50895717  0.46304800
   0.46647803  0.52075216  0.52067441
   0.48386063  0.49854756  0.49725979
   0.53163251  0.50090696  0.50506714
   0.56984104  0.50327097  0.51189894
