   6   6   0   0
  0.4500000E+04  0.3000000E-08  0.3000000E-08  0.3000000E-08  0.0000000E+00
  1.000000000000000E-004
  CAR 
 unknown system                          
      2.02774262    -26.03065265  301     -6.20235464      1.00000000
    -26.031  0.0000E+00  0.0000E+00
    -25.937  0.0000E+00  0.0000E+00
    -25.844  0.0000E+00  0.0000E+00
    -25.750  0.0000E+00  0.0000E+00
    -25.657  0.0000E+00  0.0000E+00
    -25.563  0.0000E+00  0.0000E+00
    -25.469  0.0000E+00  0.0000E+00
    -25.376  0.0000E+00  0.0000E+00
    -25.282  0.0000E+00  0.0000E+00
    -25.189  0.7914E-17  0.7401E-18
    -25.095  0.1820E-14  0.1710E-15
    -25.002  0.2312E-12  0.2180E-13
    -24.908  0.1913E-10  0.1811E-11
    -24.815  0.1030E-08  0.9816E-10
    -24.721  0.3612E-07  0.3477E-08
    -24.628  0.8258E-06  0.8072E-07
    -24.534  0.1232E-04  0.1233E-05
    -24.441  0.1201E-03  0.1247E-04
    -24.347  0.7657E-03  0.8408E-04
    -24.254  0.3195E-02  0.3829E-03
    -24.160  0.8738E-02  0.1200E-02
    -24.067  0.1566E-01  0.2665E-02
    -23.973  0.1842E-01  0.4388E-02
    -23.880  0.1420E-01  0.5716E-02
    -23.786  0.7184E-02  0.6388E-02
    -23.692  0.2382E-02  0.6611E-02
    -23.599  0.5173E-03  0.6659E-02
    -23.505  0.7354E-04  0.6666E-02
    -23.412  0.6836E-05  0.6667E-02
    -23.318  0.4150E-06  0.6667E-02
    -23.225  0.1644E-07  0.6667E-02
    -23.131  0.4245E-09  0.6667E-02
    -23.038  0.7136E-11  0.6667E-02
    -22.944  0.7805E-13  0.6667E-02
    -22.851  0.5540E-15  0.6667E-02
    -22.757  0.0000E+00  0.6667E-02
    -22.664  0.0000E+00  0.6667E-02
    -22.570  0.0000E+00  0.6667E-02
    -22.477  0.0000E+00  0.6667E-02
    -22.383  0.0000E+00  0.6667E-02
    -22.290  0.0000E+00  0.6667E-02
    -22.196  0.0000E+00  0.6667E-02
    -22.102  0.0000E+00  0.6667E-02
    -22.009  0.0000E+00  0.6667E-02
    -21.915  0.0000E+00  0.6667E-02
    -21.822  0.0000E+00  0.6667E-02
    -21.728  0.0000E+00  0.6667E-02
    -21.635  0.0000E+00  0.6667E-02
    -21.541  0.0000E+00  0.6667E-02
    -21.448  0.0000E+00  0.6667E-02
    -21.354  0.0000E+00  0.6667E-02
    -21.261  0.0000E+00  0.6667E-02
    -21.167  0.0000E+00  0.6667E-02
    -21.074  0.0000E+00  0.6667E-02
    -20.980  0.0000E+00  0.6667E-02
    -20.887  0.0000E+00  0.6667E-02
    -20.793  0.0000E+00  0.6667E-02
    -20.700  0.0000E+00  0.6667E-02
    -20.606  0.0000E+00  0.6667E-02
    -20.513  0.0000E+00  0.6667E-02
    -20.419  0.0000E+00  0.6667E-02
    -20.325  0.0000E+00  0.6667E-02
    -20.232  0.0000E+00  0.6667E-02
    -20.138  0.0000E+00  0.6667E-02
    -20.045  0.3640E-15  0.6667E-02
    -19.951  0.5260E-13  0.6667E-02
    -19.858  0.4985E-11  0.6667E-02
    -19.764  0.3073E-09  0.6667E-02
    -19.671  0.1233E-07  0.6667E-02
    -19.577  0.3226E-06  0.6667E-02
    -19.484  0.5505E-05  0.6667E-02
    -19.390  0.6136E-04  0.6673E-02
    -19.297  0.4471E-03  0.6715E-02
    -19.203  0.2132E-02  0.6914E-02
    -19.110  0.6661E-02  0.7537E-02
    -19.016  0.1364E-01  0.8813E-02
    -18.923  0.1832E-01  0.1053E-01
    -18.829  0.1613E-01  0.1203E-01
    -18.735  0.9320E-02  0.1291E-01
    -18.642  0.3530E-02  0.1324E-01
    -18.548  0.8762E-03  0.1332E-01
    -18.455  0.1424E-03  0.1333E-01
    -18.361  0.1513E-04  0.1333E-01
    -18.268  0.1051E-05  0.1333E-01
    -18.174  0.4762E-07  0.1333E-01
    -18.081  0.1407E-08  0.1333E-01
    -17.987  0.2708E-10  0.1333E-01
    -17.894  0.3392E-12  0.1333E-01
    -17.800  0.2762E-14  0.1333E-01
    -17.707  0.1583E-16  0.1333E-01
    -17.613  0.0000E+00  0.1333E-01
    -17.520  0.0000E+00  0.1333E-01
    -17.426  0.0000E+00  0.1333E-01
    -17.333  0.0000E+00  0.1333E-01
    -17.239  0.0000E+00  0.1333E-01
    -17.145  0.0000E+00  0.1333E-01
    -17.052  0.0000E+00  0.1333E-01
    -16.958  0.0000E+00  0.1333E-01
    -16.865  0.0000E+00  0.1333E-01
    -16.771  0.0000E+00  0.1333E-01
    -16.678  0.0000E+00  0.1333E-01
    -16.584  0.0000E+00  0.1333E-01
    -16.491  0.0000E+00  0.1333E-01
    -16.397  0.0000E+00  0.1333E-01
    -16.304  0.0000E+00  0.1333E-01
    -16.210  0.0000E+00  0.1333E-01
    -16.117  0.0000E+00  0.1333E-01
    -16.023  0.0000E+00  0.1333E-01
    -15.930  0.0000E+00  0.1333E-01
    -15.836  0.0000E+00  0.1333E-01
    -15.743  0.0000E+00  0.1333E-01
    -15.649  0.0000E+00  0.1333E-01
    -15.556  0.0000E+00  0.1333E-01
    -15.462  0.0000E+00  0.1333E-01
    -15.368  0.0000E+00  0.1333E-01
    -15.275  0.0000E+00  0.1333E-01
    -15.181  0.0000E+00  0.1333E-01
    -15.088  0.0000E+00  0.1333E-01
    -14.994  0.0000E+00  0.1333E-01
    -14.901  0.0000E+00  0.1333E-01
    -14.807  0.0000E+00  0.1333E-01
    -14.714  0.1306E-15  0.1333E-01
    -14.620  0.2090E-13  0.1333E-01
    -14.527  0.2151E-11  0.1333E-01
    -14.433  0.1440E-09  0.1333E-01
    -14.340  0.6275E-08  0.1333E-01
    -14.246  0.1782E-06  0.1333E-01
    -14.153  0.3300E-05  0.1333E-01
    -14.059  0.3991E-04  0.1334E-01
    -13.966  0.3156E-03  0.1337E-01
    -13.872  0.1632E-02  0.1352E-01
    -13.778  0.5531E-02  0.1404E-01
    -13.685  0.1228E-01  0.1519E-01
    -13.591  0.1788E-01  0.1686E-01
    -13.498  0.1708E-01  0.1846E-01
    -13.404  0.1070E-01  0.1946E-01
    -13.311  0.4395E-02  0.1987E-01
    -13.217  0.1183E-02  0.1998E-01
    -13.124  0.2086E-03  0.2000E-01
    -13.030  0.2405E-04  0.2000E-01
    -12.937  0.1812E-05  0.2000E-01
    -12.843  0.8916E-07  0.2000E-01
    -12.750  0.2861E-08  0.2000E-01
    -12.656  0.7674E-10  0.2000E-01
    -12.563  0.9805E-09  0.2000E-01
    -12.469  0.3695E-07  0.2000E-01
    -12.376  0.9105E-06  0.2000E-01
    -12.282  0.1468E-04  0.2000E-01
    -12.189  0.1549E-03  0.2002E-01
    -12.095  0.1072E-02  0.2012E-01
    -12.001  0.4868E-02  0.2057E-01
    -11.908  0.1452E-01  0.2193E-01
    -11.814  0.2848E-01  0.2459E-01
    -11.721  0.3673E-01  0.2803E-01
    -11.627  0.3116E-01  0.3094E-01
    -11.534  0.1738E-01  0.3257E-01
    -11.440  0.6374E-02  0.3316E-01
    -11.347  0.1536E-02  0.3331E-01
    -11.253  0.2429E-03  0.3333E-01
    -11.160  0.2519E-04  0.3333E-01
    -11.066  0.1712E-05  0.3333E-01
    -10.973  0.7608E-07  0.3333E-01
    -10.879  0.2210E-08  0.3333E-01
    -10.786  0.4191E-10  0.3333E-01
    -10.692  0.5184E-12  0.3333E-01
    -10.599  0.4186E-14  0.3333E-01
    -10.505  0.1583E-16  0.3333E-01
    -10.411  0.0000E+00  0.3333E-01
    -10.318  0.0000E+00  0.3333E-01
    -10.224  0.0000E+00  0.3333E-01
    -10.131  0.0000E+00  0.3333E-01
    -10.037  0.0000E+00  0.3333E-01
     -9.944  0.0000E+00  0.3333E-01
     -9.850  0.0000E+00  0.3333E-01
     -9.757  0.0000E+00  0.3333E-01
     -9.663  0.2097E-15  0.3333E-01
     -9.570  0.3209E-13  0.3333E-01
     -9.476  0.3179E-11  0.3333E-01
     -9.383  0.2048E-09  0.3333E-01
     -9.289  0.8592E-08  0.3333E-01
     -9.196  0.2349E-06  0.3333E-01
     -9.102  0.4189E-05  0.3333E-01
     -9.009  0.4879E-04  0.3334E-01
     -8.915  0.3715E-03  0.3337E-01
     -8.822  0.1852E-02  0.3355E-01
     -8.728  0.6055E-02  0.3411E-01
     -8.634  0.1307E-01  0.3533E-01
     -8.541  0.1903E-01  0.3711E-01
     -8.447  0.2029E-01  0.3901E-01
     -8.354  0.1954E-01  0.4084E-01
     -8.260  0.2023E-01  0.4273E-01
     -8.167  0.1931E-01  0.4454E-01
     -8.073  0.1366E-01  0.4582E-01
     -7.980  0.6541E-02  0.4643E-01
     -7.886  0.2069E-02  0.4662E-01
     -7.793  0.4299E-03  0.4666E-01
     -7.699  0.6475E-04  0.4667E-01
     -7.606  0.7460E-04  0.4667E-01
     -7.512  0.4942E-03  0.4672E-01
     -7.419  0.2300E-02  0.4694E-01
     -7.325  0.7014E-02  0.4759E-01
     -7.232  0.1402E-01  0.4890E-01
     -7.138  0.1839E-01  0.5062E-01
     -7.044  0.1582E-01  0.5210E-01
     -6.951  0.8923E-02  0.5294E-01
     -6.857  0.3300E-02  0.5325E-01
     -6.764  0.7997E-03  0.5332E-01
     -6.670  0.1269E-03  0.5333E-01
     -6.577  0.1316E-04  0.5333E-01
     -6.483  0.8924E-06  0.5333E-01
     -6.390  0.3948E-07  0.5333E-01
     -6.296  0.1139E-08  0.5333E-01
     -6.203  0.2140E-10  0.5333E-01
     -6.109  0.2616E-12  0.5333E-01
     -6.016  0.2073E-14  0.5333E-01
     -5.922  0.1583E-16  0.5333E-01
     -5.829  0.0000E+00  0.5333E-01
     -5.735  0.0000E+00  0.5333E-01
     -5.642  0.0000E+00  0.5333E-01
     -5.548  0.0000E+00  0.5333E-01
     -5.454  0.0000E+00  0.5333E-01
     -5.361  0.0000E+00  0.5333E-01
     -5.267  0.0000E+00  0.5333E-01
     -5.174  0.0000E+00  0.5333E-01
     -5.080  0.0000E+00  0.5333E-01
     -4.987  0.0000E+00  0.5333E-01
     -4.893  0.0000E+00  0.5333E-01
     -4.800  0.0000E+00  0.5333E-01
     -4.706  0.0000E+00  0.5333E-01
     -4.613  0.0000E+00  0.5333E-01
     -4.519  0.0000E+00  0.5333E-01
     -4.426  0.0000E+00  0.5333E-01
     -4.332  0.0000E+00  0.5333E-01
     -4.239  0.0000E+00  0.5333E-01
     -4.145  0.0000E+00  0.5333E-01
     -4.052  0.0000E+00  0.5333E-01
     -3.958  0.0000E+00  0.5333E-01
     -3.865  0.0000E+00  0.5333E-01
     -3.771  0.0000E+00  0.5333E-01
     -3.677  0.0000E+00  0.5333E-01
     -3.584  0.0000E+00  0.5333E-01
     -3.490  0.0000E+00  0.5333E-01
     -3.397  0.0000E+00  0.5333E-01
     -3.303  0.0000E+00  0.5333E-01
     -3.210  0.0000E+00  0.5333E-01
     -3.116  0.0000E+00  0.5333E-01
     -3.023  0.0000E+00  0.5333E-01
     -2.929  0.0000E+00  0.5333E-01
     -2.836  0.3957E-16  0.5333E-01
     -2.742  0.6797E-14  0.5333E-01
     -2.649  0.7721E-12  0.5333E-01
     -2.555  0.5704E-10  0.5333E-01
     -2.462  0.2743E-08  0.5333E-01
     -2.368  0.8591E-07  0.5333E-01
     -2.275  0.1755E-05  0.5333E-01
     -2.181  0.2340E-04  0.5334E-01
     -2.087  0.2039E-03  0.5335E-01
     -1.994  0.1163E-02  0.5346E-01
     -1.900  0.4340E-02  0.5387E-01
     -1.807  0.1062E-01  0.5486E-01
     -1.713  0.1703E-01  0.5646E-01
     -1.620  0.1792E-01  0.5813E-01
     -1.526  0.1236E-01  0.5929E-01
     -1.433  0.5595E-02  0.5981E-01
     -1.339  0.1667E-02  0.5997E-01
     -1.246  0.3995E-03  0.6000E-01
     -1.152  0.5788E-03  0.6006E-01
     -1.059  0.2457E-02  0.6029E-01
     -0.965  0.7341E-02  0.6097E-01
     -0.872  0.1447E-01  0.6233E-01
     -0.778  0.1921E-01  0.6412E-01
     -0.685  0.1875E-01  0.6588E-01
     -0.591  0.1736E-01  0.6750E-01
     -0.498  0.1881E-01  0.6926E-01
     -0.404  0.1922E-01  0.7106E-01
     -0.310  0.1481E-01  0.7244E-01
     -0.217  0.9570E-02  0.7334E-01
     -0.123  0.9606E-02  0.7424E-01
     -0.030  0.1477E-01  0.7562E-01
      0.064  0.1850E-01  0.7735E-01
      0.157  0.1562E-01  0.7881E-01
      0.251  0.8678E-02  0.7962E-01
      0.344  0.3162E-02  0.7992E-01
      0.438  0.7549E-03  0.7999E-01
      0.531  0.1180E-03  0.8000E-01
      0.625  0.1206E-04  0.8000E-01
      0.718  0.8056E-06  0.8000E-01
      0.812  0.3512E-07  0.8000E-01
      0.905  0.9979E-09  0.8000E-01
      0.999  0.1847E-10  0.8000E-01
      1.092  0.2225E-12  0.8000E-01
      1.186  0.1743E-14  0.8000E-01
      1.280  0.7914E-17  0.8000E-01
      1.373  0.0000E+00  0.8000E-01
      1.467  0.0000E+00  0.8000E-01
      1.560  0.0000E+00  0.8000E-01
      1.654  0.0000E+00  0.8000E-01
      1.747  0.0000E+00  0.8000E-01
      1.841  0.0000E+00  0.8000E-01
      1.934  0.0000E+00  0.8000E-01
      2.028  0.0000E+00  0.8000E-01
