    6    6  300    1
  0.4500000E+04  0.3000000E-08  0.3000000E-08  0.3000000E-08  0.0000000E+00
  1.000000000000000E-004
  CAR 
 unknown system                          
     16      4     12
 
  0.2500000E+00  0.2500000E+00  0.2500000E+00  0.2500000E+00
    1      -24.030652   1.000000
    2      -18.950668   1.000000
    3      -13.601615   1.000000
    4      -11.769283   1.000000
    5      -11.745947   1.000000
    6       -8.559416   1.000000
    7       -8.234312   1.000000
    8       -7.171420   1.000000
    9       -1.702115   0.000000
   10       -0.816097   0.000000
   11       -0.462110   0.000000
   12        0.024938   0.000000
 
 -0.2500000E+00  0.2500000E+00  0.2500000E+00  0.2500000E+00
    1      -24.030652   1.000000
    2      -18.950671   1.000000
    3      -13.601616   1.000000
    4      -11.769286   1.000000
    5      -11.745943   1.000000
    6       -8.559410   1.000000
    7       -8.234312   1.000000
    8       -7.171426   1.000000
    9       -1.702117   0.000000
   10       -0.816092   0.000000
   11       -0.462108   0.000000
   12        0.027550   0.000000
 
  0.2500000E+00 -0.2500000E+00  0.2500000E+00  0.2500000E+00
    1      -24.030652   1.000000
    2      -18.950668   1.000000
    3      -13.601615   1.000000
    4      -11.769292   1.000000
    5      -11.745948   1.000000
    6       -8.559398   1.000000
    7       -8.234316   1.000000
    8       -7.171420   1.000000
    9       -1.702118   0.000000
   10       -0.816107   0.000000
   11       -0.462108   0.000000
   12        0.027482   0.000000
 
 -0.2500000E+00 -0.2500000E+00  0.2500000E+00  0.2500000E+00
    1      -24.030653   1.000000
    2      -18.950668   1.000000
    3      -13.601617   1.000000
    4      -11.769291   1.000000
    5      -11.745946   1.000000
    6       -8.559400   1.000000
    7       -8.234317   1.000000
    8       -7.171422   1.000000
    9       -1.702117   0.000000
   10       -0.816113   0.000000
   11       -0.462108   0.000000
   12        0.027743   0.000000
