       N       E                     dE             d eps       ncg     rms          rms(c)
DAV:   1     0.113053134442E+03    0.11305E+03   -0.21406E+03   160   0.366E+02
DAV:   2    -0.480418930651E+01   -0.11786E+03   -0.11556E+03   192   0.109E+02
DAV:   3    -0.353403940361E+02   -0.30536E+02   -0.30342E+02   128   0.870E+01
DAV:   4    -0.387231094505E+02   -0.33827E+01   -0.33424E+01   120   0.295E+01
DAV:   5    -0.388204731763E+02   -0.97364E-01   -0.96600E-01   112   0.515E+00    0.105E+01
DAV:   6    -0.361397527836E+02    0.26807E+01   -0.44919E+00   116   0.151E+01    0.567E+00
DAV:   7    -0.354614386946E+02    0.67831E+00   -0.16762E+00   124   0.919E+00    0.237E+00
DAV:   8    -0.353834436618E+02    0.77995E-01   -0.19289E-01   128   0.336E+00    0.966E-01
DAV:   9    -0.353642835754E+02    0.19160E-01   -0.30600E-02    96   0.144E+00    0.234E-01
DAV:  10    -0.353639581882E+02    0.32539E-03   -0.46189E-03   128   0.543E-01    0.133E-01
DAV:  11    -0.353656038616E+02   -0.16457E-02   -0.13338E-03    96   0.300E-01    0.794E-02
DAV:  12    -0.353707263925E+02   -0.51225E-02   -0.28487E-03    96   0.397E-01    0.447E-02
DAV:  13    -0.353764032210E+02   -0.56768E-02   -0.15044E-03   112   0.240E-01    0.267E-02
DAV:  14    -0.353802131125E+02   -0.38099E-02   -0.50296E-04   128   0.117E-01    0.178E-02
DAV:  15    -0.353828376327E+02   -0.26245E-02   -0.20521E-04   112   0.674E-02    0.942E-03
DAV:  16    -0.353847508202E+02   -0.19132E-02   -0.21836E-04   128   0.601E-02    0.631E-03
DAV:  17    -0.353854646227E+02   -0.71380E-03   -0.29276E-05    96   0.382E-02    0.388E-03
DAV:  18    -0.353858149154E+02   -0.35029E-03   -0.27481E-05    96   0.251E-02    0.339E-03
DAV:  19    -0.353859218142E+02   -0.10690E-03   -0.76725E-06    96   0.201E-02    0.126E-03
DAV:  20    -0.353860297418E+02   -0.10793E-03   -0.45888E-06    80   0.141E-02    0.173E-03
DAV:  21    -0.353860567016E+02   -0.26960E-04   -0.13914E-06    96   0.803E-03
   1 F= -.35386057E+02 E0= -.35386057E+02  d E =-.353861E+02
       N       E                     dE             d eps       ncg     rms          rms(c)
DAV:   1    -0.353859345551E+02    0.95187E-04   -0.76551E-04   104   0.259E-01    0.868E-03
DAV:   2    -0.353859389812E+02   -0.44261E-05   -0.73879E-06    96   0.257E-02    0.527E-03
DAV:   3    -0.353859467568E+02   -0.77756E-05   -0.28935E-06    76   0.165E-02    0.153E-03
DAV:   4    -0.353859494841E+02   -0.27273E-05   -0.66351E-07    88   0.773E-03    0.106E-03
DAV:   5    -0.353859520806E+02   -0.25964E-05   -0.11321E-07    72   0.364E-03    0.503E-04
DAV:   6    -0.353859551827E+02   -0.31022E-05   -0.96236E-08    64   0.259E-03
   2 F= -.35385955E+02 E0= -.35385955E+02  d E =0.101519E-03
       N       E                     dE             d eps       ncg     rms          rms(c)
DAV:   1    -0.353856099325E+02    0.34215E-03   -0.30012E-03    96   0.513E-01    0.164E-02
DAV:   2    -0.353856094026E+02    0.52989E-06   -0.27219E-05    60   0.482E-02    0.957E-03
DAV:   3    -0.353856125810E+02   -0.31783E-05   -0.54407E-06    88   0.214E-02    0.195E-03
DAV:   4    -0.353856133767E+02   -0.79569E-06   -0.12562E-06    60   0.970E-03    0.997E-04
DAV:   5    -0.353856141035E+02   -0.72686E-06   -0.34276E-07    68   0.507E-03    0.297E-04
DAV:   6    -0.353856145680E+02   -0.46443E-06   -0.13310E-07    52   0.278E-03
   3 F= -.35385615E+02 E0= -.35385615E+02  d E =0.340615E-03
       N       E                     dE             d eps       ncg     rms          rms(c)
DAV:   1    -0.353850121187E+02    0.60198E-03   -0.72324E-03    96   0.781E-01    0.250E-02
DAV:   2    -0.353850080297E+02    0.40890E-05   -0.65690E-05    80   0.737E-02    0.143E-02
DAV:   3    -0.353850128415E+02   -0.48118E-05   -0.12638E-05    76   0.330E-02    0.333E-03
DAV:   4    -0.353850135422E+02   -0.70075E-06   -0.29553E-06    48   0.149E-02    0.170E-03
DAV:   5    -0.353850138926E+02   -0.35040E-06   -0.79436E-07    64   0.764E-03    0.459E-04
DAV:   6    -0.353850141142E+02   -0.22152E-06   -0.28484E-07    48   0.403E-03
   4 F= -.35385014E+02 E0= -.35385014E+02  d E =0.600454E-03
       N       E                     dE             d eps       ncg     rms          rms(c)
DAV:   1    -0.353840760209E+02    0.93787E-03   -0.15565E-02    96   0.113E+00    0.355E-02
DAV:   2    -0.353840701856E+02    0.58353E-05   -0.17547E-04    96   0.112E-01    0.205E-02
DAV:   3    -0.353840760991E+02   -0.59135E-05   -0.86091E-06    80   0.306E-02    0.709E-03
DAV:   4    -0.353840789261E+02   -0.28271E-05   -0.30043E-06    64   0.154E-02    0.235E-03
DAV:   5    -0.353840793791E+02   -0.45296E-06   -0.59473E-07    64   0.696E-03    0.666E-04
DAV:   6    -0.353840796638E+02   -0.28464E-06   -0.16374E-07    48   0.305E-03
   5 F= -.35384080E+02 E0= -.35384080E+02  d E =0.934450E-03
       N       E                     dE             d eps       ncg     rms          rms(c)
DAV:   1    -0.353827323132E+02    0.13471E-02   -0.30734E-02    96   0.159E+00    0.474E-02
DAV:   2    -0.353827232067E+02    0.91065E-05   -0.34872E-04    96   0.157E-01    0.274E-02
DAV:   3    -0.353827322311E+02   -0.90244E-05   -0.16045E-05    96   0.428E-02    0.948E-03
DAV:   4    -0.353827382555E+02   -0.60244E-05   -0.66333E-06    64   0.231E-02    0.311E-03
DAV:   5    -0.353827391831E+02   -0.92761E-06   -0.13023E-06    64   0.106E-02    0.963E-04
DAV:   6    -0.353827397675E+02   -0.58431E-06   -0.28552E-07    48   0.437E-03
   6 F= -.35382740E+02 E0= -.35382740E+02  d E =0.133990E-02
       N       E                     dE             d eps       ncg     rms          rms(c)
DAV:   1    -0.353808597639E+02    0.18794E-02   -0.53450E-02    96   0.208E+00    0.615E-02
DAV:   2    -0.353808465852E+02    0.13179E-04   -0.60410E-04   112   0.204E-01    0.353E-02
DAV:   3    -0.353808617367E+02   -0.15151E-04   -0.23469E-05    80   0.509E-02    0.129E-02
DAV:   4    -0.353808727782E+02   -0.11042E-04   -0.10096E-05    64   0.278E-02    0.390E-03
DAV:   5    -0.353808749013E+02   -0.21231E-05   -0.20960E-06    64   0.130E-02    0.119E-03
DAV:   6    -0.353808758206E+02   -0.91928E-06   -0.45448E-07    48   0.542E-03
   7 F= -.35380876E+02 E0= -.35380876E+02  d E =0.186395E-02
       N       E                     dE             d eps       ncg     rms          rms(c)
DAV:   1    -0.353780264338E+02    0.28485E-02   -0.10692E-01    96   0.295E+00    0.879E-02
DAV:   2    -0.353780018776E+02    0.24556E-04   -0.12135E-03   112   0.286E-01    0.507E-02
DAV:   3    -0.353780303191E+02   -0.28441E-04   -0.47736E-05    80   0.718E-02    0.177E-02
DAV:   4    -0.353780509814E+02   -0.20662E-04   -0.18747E-05    64   0.377E-02    0.550E-03
DAV:   5    -0.353780548795E+02   -0.38981E-05   -0.37740E-06    64   0.172E-02    0.190E-03
DAV:   6    -0.353780565705E+02   -0.16910E-05   -0.92639E-07    48   0.769E-03
   8 F= -.35378057E+02 E0= -.35378057E+02  d E =0.281925E-02
       N       E                     dE             d eps       ncg     rms          rms(c)
DAV:   1    -0.353745072916E+02    0.35476E-02   -0.17263E-01    96   0.380E+00    0.114E-01
DAV:   2    -0.353744666956E+02    0.40596E-04   -0.20877E-03    96   0.377E-01    0.647E-02
DAV:   3    -0.353745038916E+02   -0.37196E-04   -0.80605E-05    84   0.932E-02    0.230E-02
DAV:   4    -0.353745380899E+02   -0.34198E-04   -0.34340E-05    76   0.515E-02    0.702E-03
DAV:   5    -0.353745446042E+02   -0.65143E-05   -0.76964E-06    64   0.251E-02    0.244E-03
DAV:   6    -0.353745467729E+02   -0.21688E-05   -0.16659E-06    48   0.103E-02
   9 F= -.35374547E+02 E0= -.35374547E+02  d E =0.350980E-02
       N       E                     dE             d eps       ncg     rms          rms(c)
DAV:   1    -0.353710956312E+02    0.34490E-02   -0.19444E-01    96   0.396E+00    0.131E-01
DAV:   2    -0.353710143412E+02    0.81290E-04   -0.23437E-03    96   0.404E-01    0.780E-02
DAV:   3    -0.353710376406E+02   -0.23299E-04   -0.20280E-04    96   0.148E-01    0.304E-02
DAV:   4    -0.353710769219E+02   -0.39281E-04   -0.53938E-05    64   0.733E-02    0.111E-02
DAV:   5    -0.353710859423E+02   -0.90204E-05   -0.98203E-06    96   0.295E-02    0.507E-03
DAV:   6    -0.353710906079E+02   -0.46656E-05   -0.35451E-06    80   0.174E-02
  10 F= -.35371091E+02 E0= -.35371091E+02  d E =0.345616E-02
       N       E                     dE             d eps       ncg     rms          rms(c)
DAV:   1    -0.353715706464E+02   -0.48470E-03   -0.95955E-03    96   0.939E-01    0.482E-02
DAV:   2    -0.353715474263E+02    0.23220E-04   -0.25165E-04   112   0.148E-01    0.229E-02
DAV:   3    -0.353715399253E+02    0.75010E-05   -0.31812E-05    96   0.605E-02    0.112E-02
DAV:   4    -0.353715426591E+02   -0.27338E-05   -0.28565E-05    64   0.528E-02    0.449E-03
DAV:   5    -0.353715435091E+02   -0.84996E-06   -0.48197E-06    96   0.231E-02    0.260E-03
DAV:   6    -0.353715447918E+02   -0.12827E-05   -0.10891E-06    64   0.103E-02
  11 F= -.35371545E+02 E0= -.35371545E+02  d E =-.454184E-03
       N       E                     dE             d eps       ncg     rms          rms(c)
DAV:   1    -0.353716528668E+02   -0.10936E-03   -0.89362E-03    96   0.910E-01    0.455E-02
DAV:   2    -0.353716343987E+02    0.18468E-04   -0.23522E-04    96   0.141E-01    0.218E-02
DAV:   3    -0.353716270529E+02    0.73458E-05   -0.27579E-05    96   0.560E-02    0.107E-02
DAV:   4    -0.353716281849E+02   -0.11320E-05   -0.23450E-05    80   0.481E-02    0.410E-03
DAV:   5    -0.353716285814E+02   -0.39650E-06   -0.40754E-06    60   0.214E-02    0.227E-03
DAV:   6    -0.353716293582E+02   -0.77679E-06   -0.90317E-07    80   0.915E-03
  12 F= -.35371629E+02 E0= -.35371629E+02  d E =-.845664E-04
       N       E                     dE             d eps       ncg     rms          rms(c)
DAV:   1    -0.353717028212E+02   -0.74240E-04   -0.50599E-04    96   0.217E-01    0.113E-02
DAV:   2    -0.353717021250E+02    0.69617E-06   -0.11487E-05    68   0.342E-02    0.518E-03
DAV:   3    -0.353717024650E+02   -0.33994E-06   -0.30798E-06    48   0.180E-02    0.236E-03
DAV:   4    -0.353717034430E+02   -0.97799E-06   -0.16274E-06    64   0.120E-02    0.924E-04
DAV:   5    -0.353717040097E+02   -0.56677E-06   -0.31414E-07    48   0.549E-03    0.454E-04
DAV:   6    -0.353717044882E+02   -0.47846E-06   -0.76564E-08    52   0.237E-03
  13 F= -.35371704E+02 E0= -.35371704E+02  d E =-.751300E-04
       N       E                     dE             d eps       ncg     rms          rms(c)
DAV:   1    -0.353717784752E+02   -0.74465E-04   -0.15679E-03    96   0.383E-01    0.197E-02
DAV:   2    -0.353717737151E+02    0.47601E-05   -0.36240E-05    64   0.601E-02    0.895E-03
DAV:   3    -0.353717729316E+02    0.78353E-06   -0.92203E-06    96   0.310E-02    0.413E-03
DAV:   4    -0.353717733887E+02   -0.45707E-06   -0.49361E-06    64   0.211E-02    0.162E-03
DAV:   5    -0.353717735352E+02   -0.14658E-06   -0.93551E-07    84   0.964E-03    0.834E-04
DAV:   6    -0.353717736306E+02   -0.95387E-07   -0.18547E-07    64   0.405E-03
  14 F= -.35371774E+02 E0= -.35371774E+02  d E =-.691425E-04
       N       E                     dE             d eps       ncg     rms          rms(c)
DAV:   1    -0.353717637106E+02    0.98246E-05   -0.21920E-03    96   0.454E-01    0.226E-02
DAV:   2    -0.353717561618E+02    0.75489E-05   -0.50319E-05    76   0.702E-02    0.103E-02
DAV:   3    -0.353717545696E+02    0.15921E-05   -0.12612E-05    96   0.360E-02    0.479E-03
DAV:   4    -0.353717546246E+02   -0.54970E-07   -0.66846E-06    84   0.246E-02    0.191E-03
DAV:   5    -0.353717546788E+02   -0.54212E-07   -0.12667E-06    48   0.113E-02    0.101E-03
DAV:   6    -0.353717547848E+02   -0.10601E-06   -0.24666E-07    80   0.468E-03
  15 F= -.35371755E+02 E0= -.35371755E+02  d E =0.188458E-04
       N       E                     dE             d eps       ncg     rms          rms(c)
DAV:   1    -0.353716621588E+02    0.92520E-04   -0.15402E-03    96   0.385E-01    0.172E-02
DAV:   2    -0.353716572331E+02    0.49257E-05   -0.32004E-05    64   0.556E-02    0.792E-03
DAV:   3    -0.353716562993E+02    0.93378E-06   -0.78763E-06    48   0.281E-02    0.375E-03
DAV:   4    -0.353716564313E+02   -0.13196E-06   -0.41451E-06    48   0.193E-02    0.155E-03
DAV:   5    -0.353716565921E+02   -0.16080E-06   -0.80769E-07    48   0.897E-03    0.863E-04
DAV:   6    -0.353716568078E+02   -0.21571E-06   -0.17662E-07    48   0.379E-03
  16 F= -.35371657E+02 E0= -.35371657E+02  d E =0.979770E-04
       N       E                     dE             d eps       ncg     rms          rms(c)
DAV:   1    -0.353716607398E+02   -0.41477E-05   -0.10338E-05    64   0.320E-02    0.139E-03
DAV:   2    -0.353716609988E+02   -0.25894E-06   -0.62991E-07    48   0.781E-03    0.775E-04
DAV:   3    -0.353716611977E+02   -0.19895E-06   -0.91110E-08    48   0.260E-03    0.461E-04
DAV:   4    -0.353716615671E+02   -0.36940E-06   -0.71453E-08    64   0.217E-03    0.151E-04
DAV:   5    -0.353716616788E+02   -0.11168E-06   -0.35372E-08    48   0.994E-04    0.117E-04
DAV:   6    -0.353716618167E+02   -0.13786E-06   -0.28329E-08    48   0.488E-04
  17 F= -.35371662E+02 E0= -.35371662E+02  d E =-.500886E-05
       N       E                     dE             d eps       ncg     rms          rms(c)
DAV:   1    -0.353716673444E+02   -0.56656E-05   -0.38600E-05    60   0.618E-02    0.264E-03
DAV:   2    -0.353716675743E+02   -0.22999E-06   -0.22416E-06    52   0.150E-02    0.143E-03
DAV:   3    -0.353716676556E+02   -0.81290E-07   -0.26418E-07    48   0.488E-03    0.862E-04
DAV:   4    -0.353716678200E+02   -0.16433E-06   -0.17387E-07    96   0.413E-03    0.268E-04
DAV:   5    -0.353716678646E+02   -0.44598E-07   -0.62836E-08    48   0.191E-03    0.213E-04
DAV:   6    -0.353716679042E+02   -0.39618E-07   -0.33788E-08    48   0.768E-04
  18 F= -.35371668E+02 E0= -.35371668E+02  d E =-.608753E-05
       N       E                     dE             d eps       ncg     rms          rms(c)
DAV:   1    -0.353716711797E+02   -0.33151E-05   -0.78405E-05    64   0.882E-02    0.374E-03
DAV:   2    -0.353716714254E+02   -0.24570E-06   -0.45371E-06    64   0.214E-02    0.204E-03
DAV:   3    -0.353716714285E+02   -0.31464E-08   -0.51316E-07    48   0.696E-03    0.123E-03
DAV:   4    -0.353716714731E+02   -0.44621E-07   -0.32260E-07    96   0.589E-03    0.381E-04
DAV:   5    -0.353716714865E+02   -0.13333E-07   -0.10033E-07    48   0.273E-03    0.302E-04
DAV:   6    -0.353716714989E+02   -0.12397E-07   -0.40347E-08    48   0.109E-03
  19 F= -.35371671E+02 E0= -.35371671E+02  d E =-.359468E-05
       N       E                     dE             d eps       ncg     rms          rms(c)
DAV:   1    -0.353716680355E+02    0.34509E-05   -0.11994E-04    48   0.109E-01    0.457E-03
DAV:   2    -0.353716683326E+02   -0.29706E-06   -0.69117E-06    68   0.265E-02    0.250E-03
DAV:   3    -0.353716682862E+02    0.46428E-07   -0.76994E-07    48   0.861E-03    0.150E-03
DAV:   4    -0.353716682771E+02    0.90508E-08   -0.46828E-07    76   0.721E-03    0.463E-04
DAV:   5    -0.353716682820E+02   -0.49076E-08   -0.13732E-07    48   0.334E-03    0.369E-04
DAV:   6    -0.353716682883E+02   -0.62914E-08   -0.46886E-08    48   0.134E-03
  20 F= -.35371668E+02 E0= -.35371668E+02  d E =0.321054E-05
       N       E                     dE             d eps       ncg     rms          rms(c)
DAV:   1    -0.353716537308E+02    0.14551E-04   -0.15246E-04    48   0.124E-01    0.503E-03
DAV:   2    -0.353716541396E+02   -0.40878E-06   -0.87126E-06    64   0.298E-02    0.278E-03
DAV:   3    -0.353716540861E+02    0.53508E-07   -0.96434E-07    48   0.968E-03    0.166E-03
DAV:   4    -0.353716540798E+02    0.63230E-08   -0.56021E-07    48   0.796E-03    0.504E-04
DAV:   5    -0.353716540869E+02   -0.70843E-08   -0.15980E-07    48   0.367E-03    0.403E-04
DAV:   6    -0.353716540943E+02   -0.74306E-08   -0.48543E-08    48   0.149E-03
  21 F= -.35371654E+02 E0= -.35371654E+02  d E =0.141940E-04
       N       E                     dE             d eps       ncg     rms          rms(c)
DAV:   1    -0.353716253591E+02    0.28728E-04   -0.16657E-04    48   0.130E-01    0.502E-03
DAV:   2    -0.353716258656E+02   -0.50653E-06   -0.93466E-06    56   0.310E-02    0.282E-03
DAV:   3    -0.353716258259E+02    0.39721E-07   -0.10348E-06    48   0.100E-02    0.168E-03
DAV:   4    -0.353716258333E+02   -0.74068E-08   -0.56044E-07    48   0.798E-03    0.494E-04
DAV:   5    -0.353716258432E+02   -0.99728E-08   -0.16213E-07    48   0.366E-03    0.399E-04
DAV:   6    -0.353716258529E+02   -0.96770E-08   -0.48432E-08    48   0.150E-03
  22 F= -.35371626E+02 E0= -.35371626E+02  d E =0.282414E-04
       N       E                     dE             d eps       ncg     rms          rms(c)
DAV:   1    -0.353715770242E+02    0.48819E-04   -0.19437E-04    48   0.142E-01    0.491E-03
DAV:   2    -0.353715776962E+02   -0.67201E-06   -0.10461E-05    48   0.331E-02    0.286E-03
DAV:   3    -0.353715776833E+02    0.12890E-07   -0.11598E-06    48   0.106E-02    0.170E-03
DAV:   4    -0.353715777077E+02   -0.24329E-07   -0.54588E-07    48   0.786E-03    0.463E-04
DAV:   5    -0.353715777206E+02   -0.12944E-07   -0.16349E-07    48   0.359E-03    0.384E-04
DAV:   6    -0.353715777320E+02   -0.11383E-07   -0.49735E-08    48   0.150E-03
  23 F= -.35371578E+02 E0= -.35371578E+02  d E =0.481209E-04
       N       E                     dE             d eps       ncg     rms          rms(c)
DAV:   1    -0.353715074934E+02    0.70227E-04   -0.21482E-04    80   0.147E-01    0.493E-03
DAV:   2    -0.353715075602E+02   -0.66795E-07   -0.38439E-06    48   0.177E-02    0.259E-03
DAV:   3    -0.353715075533E+02    0.69608E-08   -0.65133E-07    48   0.784E-03    0.118E-03
DAV:   4    -0.353715076044E+02   -0.51091E-07   -0.29069E-07    48   0.487E-03    0.353E-04
DAV:   5    -0.353715076239E+02   -0.19492E-07   -0.74714E-08    48   0.214E-03    0.164E-04
DAV:   6    -0.353715076515E+02   -0.27684E-07   -0.37338E-08    48   0.977E-04
  24 F= -.35371508E+02 E0= -.35371508E+02  d E =0.700805E-04
       N       E                     dE             d eps       ncg     rms          rms(c)
DAV:   1    -0.353714151595E+02    0.92464E-04   -0.23584E-04    80   0.153E-01    0.346E-03
DAV:   2    -0.353714153344E+02   -0.17492E-06   -0.31207E-06    48   0.153E-02    0.212E-03
DAV:   3    -0.353714153850E+02   -0.50629E-07   -0.45125E-07    48   0.607E-03    0.973E-04
DAV:   4    -0.353714154375E+02   -0.52424E-07   -0.15145E-07    48   0.325E-03    0.275E-04
DAV:   5    -0.353714154546E+02   -0.17170E-07   -0.55478E-08    48   0.147E-03    0.149E-04
DAV:   6    -0.353714154793E+02   -0.24711E-07   -0.36056E-08    48   0.757E-04
  25 F= -.35371415E+02 E0= -.35371415E+02  d E =0.921722E-04
       N       E                     dE             d eps       ncg     rms          rms(c)
DAV:   1    -0.353712989289E+02    0.11653E-03   -0.31545E-04    96   0.174E-01    0.353E-03
DAV:   2    -0.353712989316E+02   -0.26498E-08   -0.31220E-06    76   0.158E-02    0.197E-03
DAV:   3    -0.353712989736E+02   -0.42037E-07   -0.45568E-07    48   0.609E-03    0.971E-04
DAV:   4    -0.353712990133E+02   -0.39626E-07   -0.17133E-07    52   0.342E-03    0.317E-04
DAV:   5    -0.353712990228E+02   -0.95426E-08   -0.61901E-08    48   0.167E-03    0.197E-04
DAV:   6    -0.353712990416E+02   -0.18777E-07   -0.37948E-08    48   0.890E-04
  26 F= -.35371299E+02 E0= -.35371299E+02  d E =0.116438E-03
       N       E                     dE             d eps       ncg     rms          rms(c)
DAV:   1    -0.353711488940E+02    0.15013E-03   -0.50857E-04    96   0.221E-01    0.514E-03
DAV:   2    -0.353711483749E+02    0.51910E-06   -0.57658E-06    64   0.222E-02    0.279E-03
DAV:   3    -0.353711483268E+02    0.48080E-07   -0.98172E-07    48   0.959E-03    0.162E-03
DAV:   4    -0.353711483593E+02   -0.32431E-07   -0.52187E-07    80   0.663E-03    0.669E-04
DAV:   5    -0.353711483703E+02   -0.11030E-07   -0.12956E-07    48   0.312E-03    0.411E-04
DAV:   6    -0.353711484027E+02   -0.32420E-07   -0.56394E-08    48   0.172E-03
  27 F= -.35371148E+02 E0= -.35371148E+02  d E =0.150639E-03
       N       E                     dE             d eps       ncg     rms          rms(c)
DAV:   1    -0.353709409534E+02    0.20742E-03   -0.83599E-04    96   0.285E-01    0.775E-03
DAV:   2    -0.353709396973E+02    0.12561E-05   -0.11360E-05    64   0.317E-02    0.409E-03
DAV:   3    -0.353709395089E+02    0.18841E-06   -0.20497E-06    48   0.141E-02    0.240E-03
DAV:   4    -0.353709395337E+02   -0.24770E-07   -0.12199E-06    48   0.104E-02    0.997E-04
DAV:   5    -0.353709395566E+02   -0.22882E-07   -0.26310E-07    48   0.493E-03    0.644E-04
DAV:   6    -0.353709396174E+02   -0.60857E-07   -0.96373E-08    48   0.267E-03
  28 F= -.35370940E+02 E0= -.35370940E+02  d E =0.208785E-03
