 vasp.5.4.1 24Jun15 (build Jan 13 2020 12:58:22) complex                        
  
 executed on           IFC91_ompi date 2020.02.03  02:42:24
 running on   15 total cores
 each image running on    1 cores
 distrk:  each k-point on    1 cores,    1 groups
 distr:  one band on NCORES_PER_BAND=   1 cores,    1 groups


--------------------------------------------------------------------------------------------------------


 INCAR:
 POTCAR:    PAW_PBE H 15Jun2001                   
 POTCAR:    PAW_PBE C 08Apr2002                   
 POTCAR:    PAW_PBE N 08Apr2002                   
 POTCAR:    PAW_PBE H 15Jun2001                   
   VRHFIN =H: ultrasoft test                                                    
   LEXCH  = PE                                                                  
   EATOM  =    12.4884 eV,    0.9179 Ry                                         
                                                                                
   TITEL  = PAW_PBE H 15Jun2001                                                 
   LULTRA =        F    use ultrasoft PP ?                                      
   IUNSCR =        0    unscreen: 0-lin 1-nonlin 2-no                           
   RPACOR =    0.000    partial core radius                                     
   POMASS =    1.000; ZVAL   =    1.000    mass and valenz                      
   RCORE  =    1.100    outmost cutoff radius                                   
   RWIGS  =    0.700; RWIGS  =    0.370    wigner-seitz radius (au A)           
   ENMAX  =  250.000; ENMIN  =  200.000 eV                                      
   RCLOC  =    0.701    cutoff for local pot                                    
   LCOR   =        T    correct aug charges                                     
   LPAW   =        T    paw PP                                                  
   EAUG   =  400.000                                                            
   RMAX   =    1.123    core radius for proj-oper                               
   RAUG   =    1.200    factor for augmentation sphere                          
   RDEP   =    1.112    radius for radial grids                                 
   RDEPT  =    0.926    core radius for aug-charge                              
                                                                                
   Atomic configuration                                                         
    2 entries                                                                   
     n  l   j            E        occ.                                          
     1  0  0.50        -6.4927   1.0000                                         
     2  1  0.50        -3.4015   0.0000                                         
   Description                                                                  
     l       E           TYP  RCUT    TYP  RCUT                                 
     0     -6.4927494     23  1.100                                             
     0      6.8029130     23  1.100                                             
     1     -4.0817478     23  1.100                                             
  local pseudopotential read in
  atomic valenz-charges read in
  non local Contribution for L=           0  read in
    real space projection operators read in
  non local Contribution for L=           0  read in
    real space projection operators read in
  non local Contribution for L=           1  read in
    real space projection operators read in
    PAW grid and wavefunctions read in
 
   number of l-projection  operators is LMAX  =           3
   number of lm-projection operators is LMMAX =           5
 
 POTCAR:    PAW_PBE C 08Apr2002                   
   VRHFIN =C: s2p2                                                              
   LEXCH  = PE                                                                  
   EATOM  =   147.1560 eV,   10.8157 Ry                                         
                                                                                
   TITEL  = PAW_PBE C 08Apr2002                                                 
   LULTRA =        F    use ultrasoft PP ?                                      
   IUNSCR =        1    unscreen: 0-lin 1-nonlin 2-no                           
   RPACOR =    1.200    partial core radius                                     
   POMASS =   12.011; ZVAL   =    4.000    mass and valenz                      
   RCORE  =    1.500    outmost cutoff radius                                   
   RWIGS  =    1.630; RWIGS  =    0.863    wigner-seitz radius (au A)           
   ENMAX  =  400.000; ENMIN  =  300.000 eV                                      
   ICORE  =        2    local potential                                         
   LCOR   =        T    correct aug charges                                     
   LPAW   =        T    paw PP                                                  
   EAUG   =  644.873                                                            
   DEXC   =    0.000                                                            
   RMAX   =    1.529    core radius for proj-oper                               
   RAUG   =    1.300    factor for augmentation sphere                          
   RDEP   =    1.501    radius for radial grids                                 
   RDEPT  =    1.300    core radius for aug-charge                              
                                                                                
   Atomic configuration                                                         
    4 entries                                                                   
     n  l   j            E        occ.                                          
     1  0  0.50      -273.3789   2.0000                                         
     2  0  0.50       -13.7508   2.0000                                         
     2  1  0.50        -5.2854   2.0000                                         
     3  2  1.50        -5.4423   0.0000                                         
   Description                                                                  
     l       E           TYP  RCUT    TYP  RCUT                                 
     0    -13.7508458     23  1.200                                             
     0     -8.2022199     23  1.200                                             
     1     -5.2854383     23  1.500                                             
     1     34.0145650     23  1.500                                             
     2     -5.4423304      7  1.500                                             
  local pseudopotential read in
  partial core-charges read in
  partial kinetic energy density read in
  atomic valenz-charges read in
  non local Contribution for L=           0  read in
    real space projection operators read in
  non local Contribution for L=           0  read in
    real space projection operators read in
  non local Contribution for L=           1  read in
    real space projection operators read in
  non local Contribution for L=           1  read in
    real space projection operators read in
    PAW grid and wavefunctions read in
 
   number of l-projection  operators is LMAX  =           4
   number of lm-projection operators is LMMAX =           8
 
 POTCAR:    PAW_PBE N 08Apr2002                   
   VRHFIN =N: s2p3                                                              
   LEXCH  = PE                                                                  
   EATOM  =   264.5486 eV,   19.4438 Ry                                         
                                                                                
   TITEL  = PAW_PBE N 08Apr2002                                                 
   LULTRA =        F    use ultrasoft PP ?                                      
   IUNSCR =        1    unscreen: 0-lin 1-nonlin 2-no                           
   RPACOR =    1.200    partial core radius                                     
   POMASS =   14.001; ZVAL   =    5.000    mass and valenz                      
   RCORE  =    1.500    outmost cutoff radius                                   
   RWIGS  =    1.400; RWIGS  =    0.741    wigner-seitz radius (au A)           
   ENMAX  =  400.000; ENMIN  =  300.000 eV                                      
   ICORE  =        2    local potential                                         
   LCOR   =        T    correct aug charges                                     
   LPAW   =        T    paw PP                                                  
   EAUG   =  627.112                                                            
   DEXC   =    0.000                                                            
   RMAX   =    1.529    core radius for proj-oper                               
   RAUG   =    1.300    factor for augmentation sphere                          
   RDEP   =    1.514    radius for radial grids                                 
   RDEPT  =    1.338    core radius for aug-charge                              
                                                                                
   Atomic configuration                                                         
    4 entries                                                                   
     n  l   j            E        occ.                                          
     1  0  0.50      -384.7179   2.0000                                         
     2  0  0.50       -18.5828   2.0000                                         
     2  1  0.50        -7.0898   3.0000                                         
     3  2  1.50        -6.8029   0.0000                                         
   Description                                                                  
     l       E           TYP  RCUT    TYP  RCUT                                 
     0    -18.5828119     23  1.200                                             
     0    -13.5018863     23  1.200                                             
     1     -7.0897853     23  1.500                                             
     1      9.5240782     23  1.500                                             
     2     -6.8029130      7  1.500                                             
  local pseudopotential read in
  partial core-charges read in
  partial kinetic energy density read in
  atomic valenz-charges read in
  non local Contribution for L=           0  read in
    real space projection operators read in
  non local Contribution for L=           0  read in
    real space projection operators read in
  non local Contribution for L=           1  read in
    real space projection operators read in
  non local Contribution for L=           1  read in
    real space projection operators read in
    PAW grid and wavefunctions read in
 
   number of l-projection  operators is LMAX  =           4
   number of lm-projection operators is LMMAX =           8
 

 ----------------------------------------------------------------------------- 
|                                                                             |
|  ADVICE TO THIS USER RUNNING 'VASP/VAMP'   (HEAR YOUR MASTER'S VOICE ...):  |
|                                                                             |
|      You have a (more or less) 'small supercell' and for smaller cells      |
|      it is recommended  to use the reciprocal-space projection scheme!      |
|      The real space optimization is not  efficient for small cells and it   |
|      is also less accurate ...                                              |
|      Therefore set LREAL=.FALSE. in the  INCAR file                         |
|                                                                             |
 ----------------------------------------------------------------------------- 

 Optimization of the real space projectors (new method)

 maximal supplied QI-value         = 34.20
 optimisation between [QCUT,QGAM] = [  9.92, 20.18] = [ 27.55,114.04] Ry 
 Optimized for a Real-space Cutoff    1.26 Angstroem

   l    n(q)    QCUT    max X(q) W(low)/X(q) W(high)/X(q)  e(spline) 
   0      8     9.919    19.460    0.50E-03    0.23E-03    0.29E-06
   0      8     9.919    12.209    0.48E-03    0.23E-03    0.28E-06
   1      7     9.919     4.655    0.17E-03    0.75E-03    0.30E-06
 Optimization of the real space projectors (new method)

 maximal supplied QI-value         = 25.13
 optimisation between [QCUT,QGAM] = [ 10.05, 20.36] = [ 28.30,116.06] Ry 
 Optimized for a Real-space Cutoff    1.30 Angstroem

   l    n(q)    QCUT    max X(q) W(low)/X(q) W(high)/X(q)  e(spline) 
   0      8    10.053   115.676    0.49E-03    0.72E-03    0.18E-06
   0      8    10.053    87.132    0.49E-03    0.71E-03    0.18E-06
   1      7    10.053     4.429    0.32E-03    0.31E-03    0.18E-06
   1      7    10.053     2.733    0.23E-03    0.19E-03    0.20E-06
 Optimization of the real space projectors (new method)

 maximal supplied QI-value         = 25.13
 optimisation between [QCUT,QGAM] = [ 10.05, 20.36] = [ 28.30,116.06] Ry 
 Optimized for a Real-space Cutoff    1.65 Angstroem

   l    n(q)    QCUT    max X(q) W(low)/X(q) W(high)/X(q)  e(spline) 
   0     10    10.053    79.467    0.76E-04    0.72E-04    0.56E-06
   0     10    10.053    66.151    0.76E-04    0.72E-04    0.55E-06
   1     10    10.053     8.350    0.25E-03    0.92E-03    0.41E-05
   1     10    10.053     5.531    0.27E-03    0.10E-02    0.45E-05
  PAW_PBE H 15Jun2001                   :
 energy of atom  1       EATOM=  -12.4884
 kinetic energy error for atom=    0.0098 (will be added to EATOM!!)
  PAW_PBE C 08Apr2002                   :
 energy of atom  2       EATOM= -147.1560
 kinetic energy error for atom=    0.0288 (will be added to EATOM!!)
  PAW_PBE N 08Apr2002                   :
 energy of atom  3       EATOM= -264.5486
 kinetic energy error for atom=    0.0736 (will be added to EATOM!!)
 
 
 POSCAR: H3 C2 N1                                
  positions in direct lattice
  velocities in cartesian coordinates
 exchange correlation table for  LEXCH =        8
   RHO(1)=    0.500       N(1)  =     2000
   RHO(2)=  100.500       N(2)  =     4000

 VTST: version 3.2, (02/03/18)

 CHAIN: initializing optimizer
 
 OPT: Using FIRE optimizer
 OPT: FIRE, Init
 OPT: FIRE, MAXMOVE       0.20000
 OPT: FIRE, TIMESTEP      0.10000
 OPT: FIRE, FTIMEMAX      1.00000
 OPT: FIRE, FTIMEINC      1.10000
 OPT: FIRE, FTIMEDEC      0.50000
 OPT: FIRE, FALPHADEC     0.99000
 OPT: FIRE, FALPHA        0.10000
 OPT: FIRE, FNMIN         5
 
 CHAIN: Read ICHAIN            0
 CHAIN: Running the NEB
 NEB:          SPRING     -5.000000
 NEB:          LCLIMB      T
 NEB:     LTANGENTOLD      F
 NEB:           LDNEB      F
 NEB:        LDNEBORG      F
 NEB:        LNEBCELL      F
 NEB:          EFIRST      0.000000
 NEB:           ELAST      0.000000
 
 POSCAR: H3 C2 N1                                
  positions in direct lattice
  No initial velocities read in
 
 POSCAR: H3 C2 N1                                
  positions in direct lattice
  No initial velocities read in
 


--------------------------------------------------------------------------------------------------------


 ion  position               nearest neighbor table
   1  0.473  0.468  0.508-   4 1.10
   2  0.476  0.512  0.468-   4 1.10
   3  0.468  0.526  0.525-   4 1.09
   4  0.484  0.503  0.502-   3 1.09   1 1.10   2 1.10   6 1.43
   5  0.565  0.488  0.490-   6 1.18
   6  0.532  0.503  0.505-   5 1.18   4 1.43
 
  LATTYP: Found a simple cubic cell.
 ALAT       =    30.0000000000
  
  Lattice vectors:
  
 A1 = (  30.0000000000,   0.0000000000,   0.0000000000)
 A2 = (   0.0000000000,  30.0000000000,   0.0000000000)
 A3 = (   0.0000000000,   0.0000000000,  30.0000000000)


Analysis of symmetry for initial positions (statically):
=====================================================================
 Subroutine PRICEL returns:
 Original cell was already a primitive cell.
 

 Routine SETGRP: Setting up the symmetry group for a 
 simple cubic supercell.


 Subroutine GETGRP returns: Found  1 space group operations
 (whereof  1 operations were pure point group operations)
 out of a pool of 48 trial point group operations.


The static configuration has the point symmetry C_1 .


Analysis of symmetry for dynamics (positions and initial velocities):
=====================================================================
 Subroutine PRICEL returns:
 Original cell was already a primitive cell.
 

 Routine SETGRP: Setting up the symmetry group for a 
 simple cubic supercell.


 Subroutine GETGRP returns: Found  1 space group operations
 (whereof  1 operations were pure point group operations)
 out of a pool of 48 trial point group operations.


The dynamic configuration has the point symmetry C_1 .
 
 
 KPOINTS: Mo2C                                    

Automatic generation of k-mesh.
Space group operators:
 irot       det(A)        alpha          n_x          n_y          n_z        tau_x        tau_y        tau_z
    1     1.000000     0.000000     1.000000     0.000000     0.000000     0.000000     0.000000     0.000000
 
 Subroutine IBZKPT returns following result:
 ===========================================
 
 Found      4 irreducible k-points:
 
 Following reciprocal coordinates:
            Coordinates               Weight
  0.250000  0.250000  0.250000      2.000000
 -0.250000  0.250000  0.250000      2.000000
  0.250000 -0.250000  0.250000      2.000000
 -0.250000 -0.250000  0.250000      2.000000
 
 Following cartesian coordinates:
            Coordinates               Weight
  0.008333  0.008333  0.008333      2.000000
 -0.008333  0.008333  0.008333      2.000000
  0.008333 -0.008333  0.008333      2.000000
 -0.008333 -0.008333  0.008333      2.000000
 


--------------------------------------------------------------------------------------------------------




 Dimension of arrays:
   k-points           NKPTS =      4   k-points in BZ     NKDIM =      4   number of bands    NBANDS=     12
   number of dos      NEDOS =    301   number of ions     NIONS =      6
   non local maximal  LDIM  =      4   non local SUM 2l+1 LMDIM =      8
   total plane-waves  NPLWV = ******
   max r-space proj   IRMAX =   2395   max aug-charges    IRDMAX=   1738
   dimension x,y,z NGX =   150 NGY =  150 NGZ =  150
   dimension x,y,z NGXF=   300 NGYF=  300 NGZF=  300
   support grid    NGXF=   300 NGYF=  300 NGZF=  300
   ions per type =               3   2   1
 NGX,Y,Z   is equivalent  to a cutoff of   8.31,  8.31,  8.31 a.u.
 NGXF,Y,Z  is equivalent  to a cutoff of  16.62, 16.62, 16.62 a.u.


 I would recommend the setting:
   dimension x,y,z NGX =   147 NGY =  147 NGZ =  147
 SYSTEM =  unknown system                          
 POSCAR =  H3 C2 N1                                

 Startparameter for this run:
   NWRITE =      2    write-flag & timer
   PREC   = normal    normal or accurate (medium, high low for compatibility)
   ISTART =      0    job   : 0-new  1-cont  2-samecut
   ICHARG =      2    charge: 1-file 2-atom 10-const
   ISPIN  =      1    spin polarized calculation?
   LNONCOLLINEAR =      F non collinear calculations
   LSORBIT =      F    spin-orbit coupling
   INIWAV =      1    electr: 0-lowe 1-rand  2-diag
   LASPH  =      F    aspherical Exc in radial PAW
   METAGGA=      F    non-selfconsistent MetaGGA calc.

 Electronic Relaxation 1
   ENCUT  =  400.0 eV  29.40 Ry    5.42 a.u.  48.92 48.92 48.92*2*pi/ulx,y,z
   ENINI  =  400.0     initial cutoff
   ENAUG  =  644.9 eV  augmentation charge cutoff
   NELM   =    500;   NELMIN=  6; NELMDL= -5     # of ELM steps 
   EDIFF  = 0.1E-03   stopping-criterion for ELM
   LREAL  =      T    real-space projection
   NLSPLINE    = F    spline interpolate recip. space projectors
   LCOMPAT=      F    compatible to vasp.4.4
   GGA_COMPAT  = T    GGA compatible to vasp.4.4-vasp.4.6
   LMAXPAW     = -100 max onsite density
   LMAXMIX     =    2 max onsite mixed and CHGCAR
   VOSKOWN=      0    Vosko Wilk Nusair interpolation
   ROPT   =   -0.00050  -0.00050  -0.00050
 Ionic relaxation
   EDIFFG = -.1E+00   stopping-criterion for IOM
   NSW    =    300    number of steps for IOM
   NBLOCK =      1;   KBLOCK =    300    inner block; outer block 
   IBRION =      3    ionic relax: 0-MD 1-quasi-New 2-CG
   NFREE  =      0    steps in history (QN), initial steepest desc. (CG)
   ISIF   =      2    stress and relaxation
   IWAVPR =     11    prediction:  0-non 1-charg 2-wave 3-comb
   ISYM   =      2    0-nonsym 1-usesym 2-fastsym
   LCORR  =      T    Harris-Foulkes like correction to forces

   POTIM  = 0.0000    time-step for ionic-motion
   TEIN   =    0.0    initial temperature
   TEBEG  =    0.0;   TEEND  =   0.0 temperature during run
   SMASS  =   2.00    Nose mass-parameter (am)
   estimated Nose-frequenzy (Omega)   =  0.12E+10 period in steps =  0.00 mass=   0.137E-25a.u.
   SCALEE = 1.0000    scale energy and forces
   NPACO  =    256;   APACO  = 16.0  distance and # of slots for P.C.
   PSTRESS=    0.0 pullay stress

  Mass of Ions in am
   POMASS =   1.00 12.01 14.00
  Ionic Valenz
   ZVAL   =   1.00  4.00  5.00
  Atomic Wigner-Seitz radii
   RWIGS  =  -1.00 -1.00 -1.00
  virtual crystal weights 
   VCA    =   1.00  1.00  1.00
   NELECT =      16.0000    total number of electrons
   NUPDOWN=      -1.0000    fix difference up-down

 DOS related values:
   EMIN   =  10.00;   EMAX   =-10.00  energy-range for DOS
   EFERMI =   0.00
   ISMEAR =     0;   SIGMA  =   0.20  broadening in eV -4-tet -1-fermi 0-gaus

 Electronic relaxation 2 (details)
   IALGO  =     38    algorithm
   LDIAG  =      T    sub-space diagonalisation (order eigenvalues)
   LSUBROT=      F    optimize rotation matrix (better conditioning)
   TURBO    =      0    0=normal 1=particle mesh
   IRESTART =      0    0=no restart 2=restart with 2 vectors
   NREBOOT  =      0    no. of reboots
   NMIN     =      0    reboot dimension
   EREF     =   0.00    reference energy to select bands
   IMIX   =      4    mixing-type and parameters
     AMIX     =   0.40;   BMIX     =  1.00
     AMIX_MAG =   1.60;   BMIX_MAG =  1.00
     AMIN     =   0.10
     WC   =   100.;   INIMIX=   1;  MIXPRE=   1;  MAXMIX= -45

 Intra band minimization:
   WEIMIN = 0.0010     energy-eigenvalue tresh-hold
   EBREAK =  0.21E-05  absolut break condition
   DEPER  =   0.30     relativ break condition  

   TIME   =   0.40     timestep for ELM

  volume/ion in A,a.u.               =    4500.00     30367.50
  Fermi-wavevector in a.u.,A,eV,Ry     =   0.137508  0.259852  0.257264  0.018908
  Thomas-Fermi vector in A             =   0.790710
 
 Write flags
   LWAVE  =      F    write WAVECAR
   LCHARG =      F    write CHGCAR
   LVTOT  =      F    write LOCPOT, total local potential
   LVHAR  =      F    write LOCPOT, Hartree potential only
   LELF   =      F    write electronic localiz. function (ELF)
   LORBIT =      0    0 simple, 1 ext, 2 COOP (PROOUT)


 Dipole corrections
   LMONO  =      F    monopole corrections only (constant potential shift)
   LDIPOL =      F    correct potential (dipole corrections)
   IDIPOL =      0    1-x, 2-y, 3-z, 4-all directions 
   EPSILON=  1.0000000 bulk dielectric constant

 Exchange correlation treatment:
   GGA     =    PE    GGA type
   LEXCH   =     8    internal setting for exchange type
   VOSKOWN=      0    Vosko Wilk Nusair interpolation
   LHFCALC =     F    Hartree Fock is set to
   LHFONE  =     F    Hartree Fock one center treatment
   AEXX    =    0.0000 exact exchange contribution

 Linear response parameters
   LEPSILON=     F    determine dielectric tensor
   LRPA    =     F    only Hartree local field effects (RPA)
   LNABLA  =     F    use nabla operator in PAW spheres
   LVEL    =     F    velocity operator in full k-point grid
   LINTERFAST=   F  fast interpolation
   KINTER  =     0    interpolate to denser k-point grid
   CSHIFT  =0.1000    complex shift for real part using Kramers Kronig
   OMEGAMAX=  -1.0    maximum frequency
   DEG_THRESHOLD= 0.2000000E-02 threshold for treating states as degnerate
   RTIME   =    0.100 relaxation time in fs

 Orbital magnetization related:
   ORBITALMAG=     F  switch on orbital magnetization
   LCHIMAG   =     F  perturbation theory with respect to B field
   DQ        =  0.001000  dq finite difference perturbation B field



--------------------------------------------------------------------------------------------------------


 quickmin algorithm: (dynamic with friction)
 charge density and potential will be updated during run
 non-spin polarized calculation
 Variant of blocked Davidson
 Davidson routine will perform the subspace rotation
 perform sub-space diagonalisation
    after iterative eigenvector-optimisation
 modified Broyden-mixing scheme, WC =      100.0
 initial mixing is a Kerker type mixing with AMIX =  0.4000 and BMIX =      1.0000
 Hartree-type preconditioning will be used
 using additional bands            4
 real space projection scheme for non local part
 use partial core corrections
 calculate Harris-corrections to forces 
   (improved forces if not selfconsistent)
 use gradient corrections 
 use of overlap-Matrix (Vanderbilt PP)
 Gauss-broadening in eV      SIGMA  =   0.20


--------------------------------------------------------------------------------------------------------


  energy-cutoff  :      400.00
  volume of cell :    27000.00
      direct lattice vectors                 reciprocal lattice vectors
    30.000000000  0.000000000  0.000000000     0.033333333  0.000000000  0.000000000
     0.000000000 30.000000000  0.000000000     0.000000000  0.033333333  0.000000000
     0.000000000  0.000000000 30.000000000     0.000000000  0.000000000  0.033333333

  length of vectors
    30.000000000 30.000000000 30.000000000     0.033333333  0.033333333  0.033333333


 
 k-points in units of 2pi/SCALE and weight: Mo2C                                    
   0.00833333  0.00833333  0.00833333       0.250
  -0.00833333  0.00833333  0.00833333       0.250
   0.00833333 -0.00833333  0.00833333       0.250
  -0.00833333 -0.00833333  0.00833333       0.250
 
 k-points in reciprocal lattice and weights: Mo2C                                    
   0.25000000  0.25000000  0.25000000       0.250
  -0.25000000  0.25000000  0.25000000       0.250
   0.25000000 -0.25000000  0.25000000       0.250
  -0.25000000 -0.25000000  0.25000000       0.250
 
 position of ions in fractional coordinates (direct lattice) 
   0.47289886  0.46840940  0.50844955
   0.47597076  0.51170600  0.46757658
   0.46806935  0.52576443  0.52531599
   0.48412180  0.50266321  0.50209501
   0.56495517  0.48784927  0.49008888
   0.53160970  0.50252883  0.50532542
 
 position of ions in cartesian coordinates  (Angst):
  14.18696592 14.05228199 15.25348661
  14.27912275 15.35118011 14.02729732
  14.04208053 15.77293291 15.75947964
  14.52365396 15.07989643 15.06285034
  16.94865515 14.63547801 14.70266653
  15.94829106 15.07586485 15.15976249
 


--------------------------------------------------------------------------------------------------------


 k-point  1 :   0.2500 0.2500 0.2500  plane waves:  490454
 k-point  2 :  -0.2500 0.2500 0.2500  plane waves:  490454
 k-point  3 :   0.2500-0.2500 0.2500  plane waves:  490454
 k-point  4 :  -0.2500-0.2500 0.2500  plane waves:  490454

 maximum and minimum number of plane-waves per node :    490454   490454

 maximum number of plane-waves:    490454
 maximum index in each direction: 
   IXMAX=   49   IYMAX=   49   IZMAX=   48
   IXMIN=  -49   IYMIN=  -49   IZMIN=  -49

 WARNING: aliasing errors must be expected set NGX to 198 to avoid them
 WARNING: aliasing errors must be expected set NGY to 198 to avoid them
 WARNING: aliasing errors must be expected set NGZ to 196 to avoid them
 aliasing errors are usually negligible using standard VASP settings
 and one can safely disregard these warnings

 serial   3D FFT for wavefunctions
 parallel 3D FFT for charge:
    minimum data exchange during FFTs selected (reduces bandwidth)


 total amount of memory used by VASP on root node  3203888. kBytes
========================================================================

   base      :      30000. kBytes
   nonlr-proj:        692. kBytes
   fftplans  :     924480. kBytes
   grid      :    1872000. kBytes
   one-center:         18. kBytes
   wavefun   :     376698. kBytes
 
     INWAV:  cpu time    0.0010: real time    0.0003
 Broyden mixing: mesh for mixing (old mesh)
   NGX = 97   NGY = 97   NGZ = 97
  (NGX  =300   NGY  =300   NGZ  =300)
  gives a total of 912673 points

 initial charge density was supplied:
 charge density of overlapping atoms calculated
 number of electron      16.0000000 magnetization 
 keeping initial charge density in first step


--------------------------------------------------------------------------------------------------------


 Maximum index for non-local projection operator         2273
 Maximum index for augmentation-charges         1495 (set IRDMAX)


--------------------------------------------------------------------------------------------------------


 First call to EWALD:  gamma=   0.059
 Maximum number of real-space cells 3x 3x 3
 Maximum number of reciprocal cells 3x 3x 3

 FEWALD executed in parallel
    FEWALD:  cpu time    0.0030: real time    0.0021


----------------------------------------- Iteration    1(   1)  ---------------------------------------


    POTLOK:  cpu time   27.7208: real time   27.7928
    SETDIJ:  cpu time    0.0070: real time    0.0068
     EDDAV:  cpu time  118.4540: real time  118.8272
       DOS:  cpu time    0.0000: real time    0.0003
    --------------------------------------------
      LOOP:  cpu time  146.1848: real time  146.6330

 eigenvalue-minimisations  :   160
 total energy-change (2. order) : 0.1130531E+03  (-0.2140601E+03)
 number of electron      16.0000000 magnetization 
 augmentation part       16.0000000 magnetization 

 Free energy of the ion-electron system (eV)
  ---------------------------------------------------
  alpha Z        PSCENC =         0.04144063
  Ewald energy   TEWEN  =       707.38528808
  -Hartree energ DENC   =     -1122.16394056
  -exchange      EXHF   =         0.00000000
  -V(xc)+E(xc)   XCENC  =        51.41571857
  PAW double counting   =       428.37890668     -430.73533574
  entropy T*S    EENTRO =        -0.18568568
  eigenvalues    EBANDS =      -117.24860568
  atomic energy  EATOM  =       596.16534815
  Solvation  Ediel_sol  =         0.00000000
  ---------------------------------------------------
  free energy    TOTEN  =       113.05313444 eV

  energy without entropy =      113.23882012  energy(sigma->0) =      113.14597728


--------------------------------------------------------------------------------------------------------




----------------------------------------- Iteration    1(   2)  ---------------------------------------


     EDDAV:  cpu time  142.8573: real time  143.1872
       DOS:  cpu time    0.0000: real time    0.0002
    --------------------------------------------
      LOOP:  cpu time  142.8583: real time  143.1916

 eigenvalue-minimisations  :   192
 total energy-change (2. order) :-0.1178573E+03  (-0.1155579E+03)
 number of electron      16.0000000 magnetization 
 augmentation part       16.0000000 magnetization 

 Free energy of the ion-electron system (eV)
  ---------------------------------------------------
  alpha Z        PSCENC =         0.04144063
  Ewald energy   TEWEN  =       707.38528808
  -Hartree energ DENC   =     -1122.16394056
  -exchange      EXHF   =         0.00000000
  -V(xc)+E(xc)   XCENC  =        51.41571857
  PAW double counting   =       428.37890668     -430.73533574
  entropy T*S    EENTRO =         0.00000000
  eigenvalues    EBANDS =      -235.29161511
  atomic energy  EATOM  =       596.16534815
  Solvation  Ediel_sol  =         0.00000000
  ---------------------------------------------------
  free energy    TOTEN  =        -4.80418931 eV

  energy without entropy =       -4.80418931  energy(sigma->0) =       -4.80418931


--------------------------------------------------------------------------------------------------------




----------------------------------------- Iteration    1(   3)  ---------------------------------------


     EDDAV:  cpu time  106.8977: real time  107.2046
       DOS:  cpu time    0.0000: real time    0.0002
    --------------------------------------------
      LOOP:  cpu time  106.8987: real time  107.2089

 eigenvalue-minimisations  :   128
 total energy-change (2. order) :-0.3053620E+02  (-0.3034236E+02)
 number of electron      16.0000000 magnetization 
 augmentation part       16.0000000 magnetization 

 Free energy of the ion-electron system (eV)
  ---------------------------------------------------
  alpha Z        PSCENC =         0.04144063
  Ewald energy   TEWEN  =       707.38528808
  -Hartree energ DENC   =     -1122.16394056
  -exchange      EXHF   =         0.00000000
  -V(xc)+E(xc)   XCENC  =        51.41571857
  PAW double counting   =       428.37890668     -430.73533574
  entropy T*S    EENTRO =         0.00000000
  eigenvalues    EBANDS =      -265.82781984
  atomic energy  EATOM  =       596.16534815
  Solvation  Ediel_sol  =         0.00000000
  ---------------------------------------------------
  free energy    TOTEN  =       -35.34039404 eV

  energy without entropy =      -35.34039404  energy(sigma->0) =      -35.34039404


--------------------------------------------------------------------------------------------------------




----------------------------------------- Iteration    1(   4)  ---------------------------------------


     EDDAV:  cpu time  101.5706: real time  101.7944
       DOS:  cpu time    0.0000: real time    0.0002
    --------------------------------------------
      LOOP:  cpu time  101.5716: real time  101.7986

 eigenvalue-minimisations  :   120
 total energy-change (2. order) :-0.3382715E+01  (-0.3342382E+01)
 number of electron      16.0000000 magnetization 
 augmentation part       16.0000000 magnetization 

 Free energy of the ion-electron system (eV)
  ---------------------------------------------------
  alpha Z        PSCENC =         0.04144063
  Ewald energy   TEWEN  =       707.38528808
  -Hartree energ DENC   =     -1122.16394056
  -exchange      EXHF   =         0.00000000
  -V(xc)+E(xc)   XCENC  =        51.41571857
  PAW double counting   =       428.37890668     -430.73533574
  entropy T*S    EENTRO =         0.00000000
  eigenvalues    EBANDS =      -269.21053526
  atomic energy  EATOM  =       596.16534815
  Solvation  Ediel_sol  =         0.00000000
  ---------------------------------------------------
  free energy    TOTEN  =       -38.72310945 eV

  energy without entropy =      -38.72310945  energy(sigma->0) =      -38.72310945


--------------------------------------------------------------------------------------------------------




----------------------------------------- Iteration    1(   5)  ---------------------------------------


     EDDAV:  cpu time   96.4523: real time   96.6632
       DOS:  cpu time    0.0000: real time    0.0001
    CHARGE:  cpu time    7.8108: real time    7.8278
    MIXING:  cpu time    0.6509: real time    0.6527
    --------------------------------------------
      LOOP:  cpu time  104.9151: real time  105.1478

 eigenvalue-minimisations  :   112
 total energy-change (2. order) :-0.9736373E-01  (-0.9659958E-01)
 number of electron      15.9999974 magnetization 
 augmentation part        0.5137989 magnetization 

 Broyden mixing:
  rms(total) = 0.10512E+01    rms(broyden)= 0.10504E+01
  rms(prec ) = 0.10874E+01
  weight for this iteration     100.00

 Free energy of the ion-electron system (eV)
  ---------------------------------------------------
  alpha Z        PSCENC =         0.04144063
  Ewald energy   TEWEN  =       707.38528808
  -Hartree energ DENC   =     -1122.16394056
  -exchange      EXHF   =         0.00000000
  -V(xc)+E(xc)   XCENC  =        51.41571857
  PAW double counting   =       428.37890668     -430.73533574
  entropy T*S    EENTRO =         0.00000000
  eigenvalues    EBANDS =      -269.30789898
  atomic energy  EATOM  =       596.16534815
  Solvation  Ediel_sol  =         0.00000000
  ---------------------------------------------------
  free energy    TOTEN  =       -38.82047318 eV

  energy without entropy =      -38.82047318  energy(sigma->0) =      -38.82047318


--------------------------------------------------------------------------------------------------------




----------------------------------------- Iteration    1(   6)  ---------------------------------------


    POTLOK:  cpu time   26.9499: real time   27.0109
    SETDIJ:  cpu time    0.0070: real time    0.0064
     EDDAV:  cpu time   98.5130: real time   98.7304
       DOS:  cpu time    0.0000: real time    0.0002
    CHARGE:  cpu time    8.4277: real time    8.4461
    MIXING:  cpu time    0.8799: real time    0.8820
    --------------------------------------------
      LOOP:  cpu time  134.7805: real time  135.0809

 eigenvalue-minimisations  :   116
 total energy-change (2. order) : 0.2680720E+01  (-0.4491867E+00)
 number of electron      15.9999974 magnetization 
 augmentation part        0.4665002 magnetization 

 Broyden mixing:
  rms(total) = 0.56695E+00    rms(broyden)= 0.56685E+00
  rms(prec ) = 0.58236E+00
  weight for this iteration     100.00

 eigenvalues of (default mixing * dielectric matrix)
  average eigenvalue GAMMA=   1.5559
  1.5559

 Free energy of the ion-electron system (eV)
  ---------------------------------------------------
  alpha Z        PSCENC =         0.04144063
  Ewald energy   TEWEN  =       707.38528808
  -Hartree energ DENC   =     -1151.50916868
  -exchange      EXHF   =         0.00000000
  -V(xc)+E(xc)   XCENC  =        53.02184379
  PAW double counting   =       716.56260922     -719.24917826
  entropy T*S    EENTRO =         0.00000000
  eigenvalues    EBANDS =      -238.55793571
  atomic energy  EATOM  =       596.16534815
  Solvation  Ediel_sol  =         0.00000000
  ---------------------------------------------------
  free energy    TOTEN  =       -36.13975278 eV

  energy without entropy =      -36.13975278  energy(sigma->0) =      -36.13975278


--------------------------------------------------------------------------------------------------------




----------------------------------------- Iteration    1(   7)  ---------------------------------------


    POTLOK:  cpu time   29.3245: real time   29.3897
    SETDIJ:  cpu time    0.0070: real time    0.0067
     EDDAV:  cpu time  105.0170: real time  105.2470
       DOS:  cpu time    0.0000: real time    0.0002
    CHARGE:  cpu time    7.8178: real time    7.8348
    MIXING:  cpu time    0.8419: real time    0.8441
    --------------------------------------------
      LOOP:  cpu time  143.0103: real time  143.3267

 eigenvalue-minimisations  :   124
 total energy-change (2. order) : 0.6783141E+00  (-0.1676155E+00)
 number of electron      15.9999974 magnetization 
 augmentation part        0.4547535 magnetization 

 Broyden mixing:
  rms(total) = 0.23736E+00    rms(broyden)= 0.23730E+00
  rms(prec ) = 0.24282E+00
  weight for this iteration     100.00

 eigenvalues of (default mixing * dielectric matrix)
  average eigenvalue GAMMA=   1.5262
  0.9908  2.0616

 Free energy of the ion-electron system (eV)
  ---------------------------------------------------
  alpha Z        PSCENC =         0.04144063
  Ewald energy   TEWEN  =       707.38528808
  -Hartree energ DENC   =     -1170.32412750
  -exchange      EXHF   =         0.00000000
  -V(xc)+E(xc)   XCENC  =        54.22499840
  PAW double counting   =      1074.65132020    -1077.51744154
  entropy T*S    EENTRO =         0.00000000
  eigenvalues    EBANDS =      -220.08826512
  atomic energy  EATOM  =       596.16534815
  Solvation  Ediel_sol  =         0.00000000
  ---------------------------------------------------
  free energy    TOTEN  =       -35.46143869 eV

  energy without entropy =      -35.46143869  energy(sigma->0) =      -35.46143869


--------------------------------------------------------------------------------------------------------




----------------------------------------- Iteration    1(   8)  ---------------------------------------


    POTLOK:  cpu time   26.3440: real time   26.4027
    SETDIJ:  cpu time    0.0070: real time    0.0065
     EDDAV:  cpu time  107.7816: real time  108.0192
       DOS:  cpu time    0.0000: real time    0.0002
    CHARGE:  cpu time    8.1568: real time    8.1753
    MIXING:  cpu time    0.9579: real time    0.9593
    --------------------------------------------
      LOOP:  cpu time  143.2492: real time  143.6088

 eigenvalue-minimisations  :   128
 total energy-change (2. order) : 0.7799503E-01  (-0.1928912E-01)
 number of electron      15.9999974 magnetization 
 augmentation part        0.4442005 magnetization 

 Broyden mixing:
  rms(total) = 0.96614E-01    rms(broyden)= 0.96587E-01
  rms(prec ) = 0.10049E+00
  weight for this iteration     100.00

 eigenvalues of (default mixing * dielectric matrix)
  average eigenvalue GAMMA=   1.5855
  2.3215  1.6297  0.8054

 Free energy of the ion-electron system (eV)
  ---------------------------------------------------
  alpha Z        PSCENC =         0.04144063
  Ewald energy   TEWEN  =       707.38528808
  -Hartree energ DENC   =     -1177.56996516
  -exchange      EXHF   =         0.00000000
  -V(xc)+E(xc)   XCENC  =        54.69494087
  PAW double counting   =      1257.33307060    -1260.23239217
  entropy T*S    EENTRO =         0.00000000
  eigenvalues    EBANDS =      -213.20117466
  atomic energy  EATOM  =       596.16534815
  Solvation  Ediel_sol  =         0.00000000
  ---------------------------------------------------
  free energy    TOTEN  =       -35.38344366 eV

  energy without entropy =      -35.38344366  energy(sigma->0) =      -35.38344366


--------------------------------------------------------------------------------------------------------




----------------------------------------- Iteration    1(   9)  ---------------------------------------


    POTLOK:  cpu time   28.7946: real time   28.8596
    SETDIJ:  cpu time    0.0070: real time    0.0066
     EDDAV:  cpu time   83.7473: real time   83.9322
       DOS:  cpu time    0.0000: real time    0.0002
    CHARGE:  cpu time    8.4427: real time    8.4623
    MIXING:  cpu time    1.0788: real time    1.0810
    --------------------------------------------
      LOOP:  cpu time  122.0724: real time  122.3465

 eigenvalue-minimisations  :    96
 total energy-change (2. order) : 0.1916009E-01  (-0.3060020E-02)
 number of electron      15.9999975 magnetization 
 augmentation part        0.4446261 magnetization 

 Broyden mixing:
  rms(total) = 0.23427E-01    rms(broyden)= 0.23413E-01
  rms(prec ) = 0.28809E-01
  weight for this iteration     100.00

 eigenvalues of (default mixing * dielectric matrix)
  average eigenvalue GAMMA=   1.4940
  2.2140  1.7254  0.8426  1.1941

 Free energy of the ion-electron system (eV)
  ---------------------------------------------------
  alpha Z        PSCENC =         0.04144063
  Ewald energy   TEWEN  =       707.38528808
  -Hartree energ DENC   =     -1178.75142384
  -exchange      EXHF   =         0.00000000
  -V(xc)+E(xc)   XCENC  =        54.78193458
  PAW double counting   =      1328.71323737    -1331.58200623
  entropy T*S    EENTRO =         0.00000000
  eigenvalues    EBANDS =      -212.11810232
  atomic energy  EATOM  =       596.16534815
  Solvation  Ediel_sol  =         0.00000000
  ---------------------------------------------------
  free energy    TOTEN  =       -35.36428358 eV

  energy without entropy =      -35.36428358  energy(sigma->0) =      -35.36428358


--------------------------------------------------------------------------------------------------------




----------------------------------------- Iteration    1(  10)  ---------------------------------------


    POTLOK:  cpu time   28.3897: real time   28.4528
    SETDIJ:  cpu time    0.0070: real time    0.0065
     EDDAV:  cpu time  107.8616: real time  108.1006
       DOS:  cpu time    0.0010: real time    0.0002
    CHARGE:  cpu time    7.6578: real time    7.6739
    MIXING:  cpu time    1.0038: real time    1.0065
    --------------------------------------------
      LOOP:  cpu time  144.9220: real time  145.2439

 eigenvalue-minimisations  :   128
 total energy-change (2. order) : 0.3253872E-03  (-0.4618936E-03)
 number of electron      15.9999974 magnetization 
 augmentation part        0.4456209 magnetization 

 Broyden mixing:
  rms(total) = 0.13273E-01    rms(broyden)= 0.13267E-01
  rms(prec ) = 0.18680E-01
  weight for this iteration     100.00

 eigenvalues of (default mixing * dielectric matrix)
  average eigenvalue GAMMA=   1.4961
  2.1592  2.1592  0.9011  0.9011  1.3599

 Free energy of the ion-electron system (eV)
  ---------------------------------------------------
  alpha Z        PSCENC =         0.04144063
  Ewald energy   TEWEN  =       707.38528808
  -Hartree energ DENC   =     -1179.59616049
  -exchange      EXHF   =         0.00000000
  -V(xc)+E(xc)   XCENC  =        54.80238190
  PAW double counting   =      1325.06705757    -1327.93236983
  entropy T*S    EENTRO =         0.00000000
  eigenvalues    EBANDS =      -211.29694420
  atomic energy  EATOM  =       596.16534815
  Solvation  Ediel_sol  =         0.00000000
  ---------------------------------------------------
  free energy    TOTEN  =       -35.36395819 eV

  energy without entropy =      -35.36395819  energy(sigma->0) =      -35.36395819


--------------------------------------------------------------------------------------------------------




----------------------------------------- Iteration    1(  11)  ---------------------------------------


    POTLOK:  cpu time   27.4578: real time   27.5188
    SETDIJ:  cpu time    0.0070: real time    0.0067
     EDDAV:  cpu time   85.2850: real time   85.4727
       DOS:  cpu time    0.0000: real time    0.0002
    CHARGE:  cpu time    7.7888: real time    7.8060
    MIXING:  cpu time    1.3178: real time    1.3211
    --------------------------------------------
      LOOP:  cpu time  121.8575: real time  122.1288

 eigenvalue-minimisations  :    96
 total energy-change (2. order) :-0.1645673E-02  (-0.1333765E-03)
 number of electron      15.9999974 magnetization 
 augmentation part        0.4452206 magnetization 

 Broyden mixing:
  rms(total) = 0.79353E-02    rms(broyden)= 0.79340E-02
  rms(prec ) = 0.12701E-01
  weight for this iteration     100.00

 eigenvalues of (default mixing * dielectric matrix)
  average eigenvalue GAMMA=   1.6340
  2.6164  2.6164  1.3807  1.3807  0.9048  0.9048

 Free energy of the ion-electron system (eV)
  ---------------------------------------------------
  alpha Z        PSCENC =         0.04144063
  Ewald energy   TEWEN  =       707.38528808
  -Hartree energ DENC   =     -1180.61043580
  -exchange      EXHF   =         0.00000000
  -V(xc)+E(xc)   XCENC  =        54.83119801
  PAW double counting   =      1323.23083774    -1326.09398516
  entropy T*S    EENTRO =         0.00000000
  eigenvalues    EBANDS =      -210.31529552
  atomic energy  EATOM  =       596.16534815
  Solvation  Ediel_sol  =         0.00000000
  ---------------------------------------------------
  free energy    TOTEN  =       -35.36560386 eV

  energy without entropy =      -35.36560386  energy(sigma->0) =      -35.36560386


--------------------------------------------------------------------------------------------------------




----------------------------------------- Iteration    1(  12)  ---------------------------------------


    POTLOK:  cpu time   26.9439: real time   27.0034
    SETDIJ:  cpu time    0.0060: real time    0.0067
     EDDAV:  cpu time   85.4860: real time   85.6738
       DOS:  cpu time    0.0000: real time    0.0002
    CHARGE:  cpu time    7.9308: real time    7.9490
    MIXING:  cpu time    1.2918: real time    1.2949
    --------------------------------------------
      LOOP:  cpu time  121.6595: real time  121.9314

 eigenvalue-minimisations  :    96
 total energy-change (2. order) :-0.5122531E-02  (-0.2848697E-03)
 number of electron      15.9999974 magnetization 
 augmentation part        0.4449405 magnetization 

 Broyden mixing:
  rms(total) = 0.44679E-02    rms(broyden)= 0.44619E-02
  rms(prec ) = 0.72370E-02
  weight for this iteration     100.00

 eigenvalues of (default mixing * dielectric matrix)
  average eigenvalue GAMMA=   1.7359
  3.5949  2.3124  1.6663  1.6663  0.8872  1.0120  1.0120

 Free energy of the ion-electron system (eV)
  ---------------------------------------------------
  alpha Z        PSCENC =         0.04144063
  Ewald energy   TEWEN  =       707.38528808
  -Hartree energ DENC   =     -1181.87451009
  -exchange      EXHF   =         0.00000000
  -V(xc)+E(xc)   XCENC  =        54.86222829
  PAW double counting   =      1320.32771575    -1323.18842544
  entropy T*S    EENTRO =         0.00000000
  eigenvalues    EBANDS =      -209.08981177
  atomic energy  EATOM  =       596.16534815
  Solvation  Ediel_sol  =         0.00000000
  ---------------------------------------------------
  free energy    TOTEN  =       -35.37072639 eV

  energy without entropy =      -35.37072639  energy(sigma->0) =      -35.37072639


--------------------------------------------------------------------------------------------------------




----------------------------------------- Iteration    1(  13)  ---------------------------------------


    POTLOK:  cpu time   29.4275: real time   29.4948
    SETDIJ:  cpu time    0.0060: real time    0.0065
     EDDAV:  cpu time   96.5853: real time   96.7984
       DOS:  cpu time    0.0000: real time    0.0002
    CHARGE:  cpu time    8.2417: real time    8.2614
    MIXING:  cpu time    1.4358: real time    1.4390
    --------------------------------------------
      LOOP:  cpu time  135.6994: real time  136.0049

 eigenvalue-minimisations  :   112
 total energy-change (2. order) :-0.5676829E-02  (-0.1504431E-03)
 number of electron      15.9999974 magnetization 
 augmentation part        0.4447392 magnetization 

 Broyden mixing:
  rms(total) = 0.26725E-02    rms(broyden)= 0.26700E-02
  rms(prec ) = 0.42003E-02
  weight for this iteration     100.00

 eigenvalues of (default mixing * dielectric matrix)
  average eigenvalue GAMMA=   1.8853
  4.8706  2.4980  2.0185  1.5986  0.8906  0.8906  1.1812  1.1346

 Free energy of the ion-electron system (eV)
  ---------------------------------------------------
  alpha Z        PSCENC =         0.04144063
  Ewald energy   TEWEN  =       707.38528808
  -Hartree energ DENC   =     -1182.52088999
  -exchange      EXHF   =         0.00000000
  -V(xc)+E(xc)   XCENC  =        54.87078884
  PAW double counting   =      1319.81434770    -1322.67522018
  entropy T*S    EENTRO =         0.00000000
  eigenvalues    EBANDS =      -208.45750645
  atomic energy  EATOM  =       596.16534815
  Solvation  Ediel_sol  =         0.00000000
  ---------------------------------------------------
  free energy    TOTEN  =       -35.37640322 eV

  energy without entropy =      -35.37640322  energy(sigma->0) =      -35.37640322


--------------------------------------------------------------------------------------------------------




----------------------------------------- Iteration    1(  14)  ---------------------------------------


    POTLOK:  cpu time   26.7229: real time   26.7816
    SETDIJ:  cpu time    0.0060: real time    0.0066
     EDDAV:  cpu time  107.7626: real time  107.9992
       DOS:  cpu time    0.0000: real time    0.0002
    CHARGE:  cpu time    8.3287: real time    8.3479
    MIXING:  cpu time    1.8137: real time    1.8167
    --------------------------------------------
      LOOP:  cpu time  144.6370: real time  144.9565

 eigenvalue-minimisations  :   128
 total energy-change (2. order) :-0.3809891E-02  (-0.5029579E-04)
 number of electron      15.9999974 magnetization 
 augmentation part        0.4447476 magnetization 

 Broyden mixing:
  rms(total) = 0.17846E-02    rms(broyden)= 0.17838E-02
  rms(prec ) = 0.26070E-02
  weight for this iteration     100.00

 eigenvalues of (default mixing * dielectric matrix)
  average eigenvalue GAMMA=   1.8941
  5.0471  2.3199  2.3199  1.8052  1.5658  1.0959  1.0959  0.8984  0.8984

 Free energy of the ion-electron system (eV)
  ---------------------------------------------------
  alpha Z        PSCENC =         0.04144063
  Ewald energy   TEWEN  =       707.38528808
  -Hartree energ DENC   =     -1182.75688799
  -exchange      EXHF   =         0.00000000
  -V(xc)+E(xc)   XCENC  =        54.86669372
  PAW double counting   =      1318.03719776    -1320.89803560
  entropy T*S    EENTRO =         0.00000000
  eigenvalues    EBANDS =      -208.22125786
  atomic energy  EATOM  =       596.16534815
  Solvation  Ediel_sol  =         0.00000000
  ---------------------------------------------------
  free energy    TOTEN  =       -35.38021311 eV

  energy without entropy =      -35.38021311  energy(sigma->0) =      -35.38021311


--------------------------------------------------------------------------------------------------------




----------------------------------------- Iteration    1(  15)  ---------------------------------------


    POTLOK:  cpu time   27.2419: real time   27.3010
    SETDIJ:  cpu time    0.0060: real time    0.0064
     EDDAV:  cpu time   92.9519: real time   93.1468
       DOS:  cpu time    0.0010: real time    0.0002
    CHARGE:  cpu time    7.8488: real time    7.8661
    MIXING:  cpu time    1.5218: real time    1.5257
    --------------------------------------------
      LOOP:  cpu time  129.5733: real time  129.8508

 eigenvalue-minimisations  :   112
 total energy-change (2. order) :-0.2624520E-02  (-0.2052111E-04)
 number of electron      15.9999974 magnetization 
 augmentation part        0.4447632 magnetization 

 Broyden mixing:
  rms(total) = 0.94232E-03    rms(broyden)= 0.94213E-03
  rms(prec ) = 0.15326E-02
  weight for this iteration     100.00

 eigenvalues of (default mixing * dielectric matrix)
  average eigenvalue GAMMA=   2.1290
  6.7716  3.4762  2.3880  2.0162  1.5296  1.2379  1.1482  0.9256  0.9256  0.8709

 Free energy of the ion-electron system (eV)
  ---------------------------------------------------
  alpha Z        PSCENC =         0.04144063
  Ewald energy   TEWEN  =       707.38528808
  -Hartree energ DENC   =     -1182.80240359
  -exchange      EXHF   =         0.00000000
  -V(xc)+E(xc)   XCENC  =        54.86324101
  PAW double counting   =      1318.83629896    -1321.69727640
  entropy T*S    EENTRO =         0.00000000
  eigenvalues    EBANDS =      -208.17477447
  atomic energy  EATOM  =       596.16534815
  Solvation  Ediel_sol  =         0.00000000
  ---------------------------------------------------
  free energy    TOTEN  =       -35.38283763 eV

  energy without entropy =      -35.38283763  energy(sigma->0) =      -35.38283763


--------------------------------------------------------------------------------------------------------




----------------------------------------- Iteration    1(  16)  ---------------------------------------


    POTLOK:  cpu time   27.1809: real time   27.2400
    SETDIJ:  cpu time    0.0070: real time    0.0064
     EDDAV:  cpu time  101.3206: real time  101.5313
       DOS:  cpu time    0.0000: real time    0.0002
    CHARGE:  cpu time    7.3409: real time    7.3562
    MIXING:  cpu time    1.6637: real time    1.6669
    --------------------------------------------
      LOOP:  cpu time  137.5161: real time  137.8054

 eigenvalue-minimisations  :   128
 total energy-change (2. order) :-0.1913188E-02  (-0.2183557E-04)
 number of electron      15.9999974 magnetization 
 augmentation part        0.4447661 magnetization 

 Broyden mixing:
  rms(total) = 0.63134E-03    rms(broyden)= 0.63124E-03
  rms(prec ) = 0.84260E-03
  weight for this iteration     100.00

 eigenvalues of (default mixing * dielectric matrix)
  average eigenvalue GAMMA=   2.1338
  7.0337  3.5508  2.1280  2.1280  2.0942  1.5216  1.1304  1.1304  0.9417  0.9417
  0.8714

 Free energy of the ion-electron system (eV)
  ---------------------------------------------------
  alpha Z        PSCENC =         0.04144063
  Ewald energy   TEWEN  =       707.38528808
  -Hartree energ DENC   =     -1182.83439686
  -exchange      EXHF   =         0.00000000
  -V(xc)+E(xc)   XCENC  =        54.85878905
  PAW double counting   =      1318.66021796    -1321.52118176
  entropy T*S    EENTRO =         0.00000000
  eigenvalues    EBANDS =      -208.14025606
  atomic energy  EATOM  =       596.16534815
  Solvation  Ediel_sol  =         0.00000000
  ---------------------------------------------------
  free energy    TOTEN  =       -35.38475082 eV

  energy without entropy =      -35.38475082  energy(sigma->0) =      -35.38475082


--------------------------------------------------------------------------------------------------------




----------------------------------------- Iteration    1(  17)  ---------------------------------------


    POTLOK:  cpu time   25.3212: real time   25.3726
    SETDIJ:  cpu time    0.0060: real time    0.0065
     EDDAV:  cpu time   81.2227: real time   81.3899
       DOS:  cpu time    0.0000: real time    0.0002
    CHARGE:  cpu time    7.4739: real time    7.4906
    MIXING:  cpu time    1.7977: real time    1.8003
    --------------------------------------------
      LOOP:  cpu time  115.8234: real time  116.0638

 eigenvalue-minimisations  :    96
 total energy-change (2. order) :-0.7138025E-03  (-0.2927648E-05)
 number of electron      15.9999974 magnetization 
 augmentation part        0.4447453 magnetization 

 Broyden mixing:
  rms(total) = 0.38791E-03    rms(broyden)= 0.38774E-03
  rms(prec ) = 0.50559E-03
  weight for this iteration     100.00

 eigenvalues of (default mixing * dielectric matrix)
  average eigenvalue GAMMA=   2.2701
  8.1659  4.2056  2.8605  2.4702  1.9077  1.6145  1.3109  1.0940  0.9486  0.9486
  0.8838  0.8306

 Free energy of the ion-electron system (eV)
  ---------------------------------------------------
  alpha Z        PSCENC =         0.04144063
  Ewald energy   TEWEN  =       707.38528808
  -Hartree energ DENC   =     -1182.83575317
  -exchange      EXHF   =         0.00000000
  -V(xc)+E(xc)   XCENC  =        54.85781427
  PAW double counting   =      1318.48295585    -1321.34388402
  entropy T*S    EENTRO =         0.00000000
  eigenvalues    EBANDS =      -208.13867441
  atomic energy  EATOM  =       596.16534815
  Solvation  Ediel_sol  =         0.00000000
  ---------------------------------------------------
  free energy    TOTEN  =       -35.38546462 eV

  energy without entropy =      -35.38546462  energy(sigma->0) =      -35.38546462


--------------------------------------------------------------------------------------------------------




----------------------------------------- Iteration    1(  18)  ---------------------------------------


    POTLOK:  cpu time   25.4311: real time   25.4845
    SETDIJ:  cpu time    0.0070: real time    0.0064
     EDDAV:  cpu time   81.2416: real time   81.4094
       DOS:  cpu time    0.0000: real time    0.0002
    CHARGE:  cpu time    7.8458: real time    7.8632
    MIXING:  cpu time    1.9517: real time    1.9546
    --------------------------------------------
      LOOP:  cpu time  116.4793: real time  116.8072

 eigenvalue-minimisations  :    96
 total energy-change (2. order) :-0.3502927E-03  (-0.2748143E-05)
 number of electron      15.9999974 magnetization 
 augmentation part        0.4447375 magnetization 

 Broyden mixing:
  rms(total) = 0.33878E-03    rms(broyden)= 0.33872E-03
  rms(prec ) = 0.38463E-03
  weight for this iteration     100.00

 eigenvalues of (default mixing * dielectric matrix)
  average eigenvalue GAMMA=   2.2493
  8.1804  4.7544  2.6497  2.3547  1.8858  1.8858  1.5726  1.1237  1.1237  1.0145
  0.9157  0.9157  0.8638

 Free energy of the ion-electron system (eV)
  ---------------------------------------------------
  alpha Z        PSCENC =         0.04144063
  Ewald energy   TEWEN  =       707.38528808
  -Hartree energ DENC   =     -1182.83557021
  -exchange      EXHF   =         0.00000000
  -V(xc)+E(xc)   XCENC  =        54.85716770
  PAW double counting   =      1318.62149563    -1321.48234120
  entropy T*S    EENTRO =         0.00000000
  eigenvalues    EBANDS =      -208.13864369
  atomic energy  EATOM  =       596.16534815
  Solvation  Ediel_sol  =         0.00000000
  ---------------------------------------------------
  free energy    TOTEN  =       -35.38581492 eV

  energy without entropy =      -35.38581492  energy(sigma->0) =      -35.38581492


--------------------------------------------------------------------------------------------------------




----------------------------------------- Iteration    1(  19)  ---------------------------------------


    POTLOK:  cpu time   25.0772: real time   25.1300
    SETDIJ:  cpu time    0.0070: real time    0.0064
     EDDAV:  cpu time   80.0508: real time   80.2151
       DOS:  cpu time    0.0000: real time    0.0002
    CHARGE:  cpu time    7.6018: real time    7.6172
    MIXING:  cpu time    1.9127: real time    1.9171
    --------------------------------------------
      LOOP:  cpu time  114.6506: real time  114.8901

 eigenvalue-minimisations  :    96
 total energy-change (2. order) :-0.1068987E-03  (-0.7672493E-06)
 number of electron      15.9999974 magnetization 
 augmentation part        0.4447417 magnetization 

 Broyden mixing:
  rms(total) = 0.12558E-03    rms(broyden)= 0.12554E-03
  rms(prec ) = 0.17362E-03
  weight for this iteration     100.00

 eigenvalues of (default mixing * dielectric matrix)
  average eigenvalue GAMMA=   2.2876
  8.6460  4.9318  3.0427  2.5712  2.0725  2.0725  1.4745  1.4745  1.0745  1.0745
  0.9338  0.9022  0.9022  0.8544

 Free energy of the ion-electron system (eV)
  ---------------------------------------------------
  alpha Z        PSCENC =         0.04144063
  Ewald energy   TEWEN  =       707.38528808
  -Hartree energ DENC   =     -1182.82709807
  -exchange      EXHF   =         0.00000000
  -V(xc)+E(xc)   XCENC  =        54.85669139
  PAW double counting   =      1318.69384456    -1321.55472753
  entropy T*S    EENTRO =         0.00000000
  eigenvalues    EBANDS =      -208.14670903
  atomic energy  EATOM  =       596.16534815
  Solvation  Ediel_sol  =         0.00000000
  ---------------------------------------------------
  free energy    TOTEN  =       -35.38592181 eV

  energy without entropy =      -35.38592181  energy(sigma->0) =      -35.38592181


--------------------------------------------------------------------------------------------------------




----------------------------------------- Iteration    1(  20)  ---------------------------------------


    POTLOK:  cpu time   24.8592: real time   24.9100
    SETDIJ:  cpu time    0.0060: real time    0.0064
     EDDAV:  cpu time   69.2835: real time   69.4256
       DOS:  cpu time    0.0000: real time    0.0002
    CHARGE:  cpu time    7.2329: real time    7.2489
    MIXING:  cpu time    2.1147: real time    2.1187
    --------------------------------------------
      LOOP:  cpu time  103.4983: real time  103.7140

 eigenvalue-minimisations  :    80
 total energy-change (2. order) :-0.1079277E-03  (-0.4588804E-06)
 number of electron      15.9999974 magnetization 
 augmentation part        0.4447514 magnetization 

 Broyden mixing:
  rms(total) = 0.17344E-03    rms(broyden)= 0.17339E-03
  rms(prec ) = 0.18880E-03
  weight for this iteration     100.00

 eigenvalues of (default mixing * dielectric matrix)
  average eigenvalue GAMMA=   2.2665
  8.6163  5.5208  3.1281  2.4361  2.4361  1.6612  1.6612  1.5591  1.1735  1.1735
  0.9640  0.9640  0.9267  0.9267  0.8499

 Free energy of the ion-electron system (eV)
  ---------------------------------------------------
  alpha Z        PSCENC =         0.04144063
  Ewald energy   TEWEN  =       707.38528808
  -Hartree energ DENC   =     -1182.82476612
  -exchange      EXHF   =         0.00000000
  -V(xc)+E(xc)   XCENC  =        54.85635738
  PAW double counting   =      1318.59179933    -1321.45265564
  entropy T*S    EENTRO =         0.00000000
  eigenvalues    EBANDS =      -208.14884156
  atomic energy  EATOM  =       596.16534815
  Solvation  Ediel_sol  =         0.00000000
  ---------------------------------------------------
  free energy    TOTEN  =       -35.38602974 eV

  energy without entropy =      -35.38602974  energy(sigma->0) =      -35.38602974


--------------------------------------------------------------------------------------------------------




----------------------------------------- Iteration    1(  21)  ---------------------------------------


    POTLOK:  cpu time   22.7615: real time   22.8080
    SETDIJ:  cpu time    0.0060: real time    0.0064
     EDDAV:  cpu time   70.7392: real time   70.8794
       DOS:  cpu time    0.0000: real time    0.0002
    --------------------------------------------
      LOOP:  cpu time   93.5088: real time   93.6981

 eigenvalue-minimisations  :    96
 total energy-change (2. order) :-0.2695975E-04  (-0.1391377E-06)
 number of electron      15.9999974 magnetization 
 augmentation part        0.4447514 magnetization 

 Free energy of the ion-electron system (eV)
  ---------------------------------------------------
  alpha Z        PSCENC =         0.04144063
  Ewald energy   TEWEN  =       707.38528808
  -Hartree energ DENC   =     -1182.82579754
  -exchange      EXHF   =         0.00000000
  -V(xc)+E(xc)   XCENC  =        54.85643402
  PAW double counting   =      1318.63540709    -1321.49628973
  entropy T*S    EENTRO =         0.00000000
  eigenvalues    EBANDS =      -208.14788739
  atomic energy  EATOM  =       596.16534815
  Solvation  Ediel_sol  =         0.00000000
  ---------------------------------------------------
  free energy    TOTEN  =       -35.38605670 eV

  energy without entropy =      -35.38605670  energy(sigma->0) =      -35.38605670


--------------------------------------------------------------------------------------------------------




 average (electrostatic) potential at core
  the test charge radii are     0.5201  0.6991  0.7089
  (the norm of the test charge is              1.0000)
       1 -42.9877       2 -42.9823       3 -42.9559       4 -60.4171       5 -59.5140
       6 -74.7499
 
 
 
 E-fermi :  -6.2213     XC(G=0):  -0.0897     alpha+bet : -0.0137


 k-point     1 :       0.2500    0.2500    0.2500
  band No.  band energies     occupation 
      1     -24.0227      2.00000
      2     -18.9639      2.00000
      3     -13.6204      2.00000
      4     -11.7602      2.00000
      5     -11.7441      2.00000
      6      -8.5539      2.00000
      7      -8.2377      2.00000
      8      -7.1710      2.00000
      9      -1.6770      0.00000
     10      -0.8145      0.00000
     11      -0.4678      0.00000
     12      -0.0067      0.00000

 k-point     2 :      -0.2500    0.2500    0.2500
  band No.  band energies     occupation 
      1     -24.0227      2.00000
      2     -18.9640      2.00000
      3     -13.6204      2.00000
      4     -11.7602      2.00000
      5     -11.7441      2.00000
      6      -8.5539      2.00000
      7      -8.2377      2.00000
      8      -7.1710      2.00000
      9      -1.6770      0.00000
     10      -0.8145      0.00000
     11      -0.4678      0.00000
     12      -0.0041      0.00000

 k-point     3 :       0.2500   -0.2500    0.2500
  band No.  band energies     occupation 
      1     -24.0227      2.00000
      2     -18.9639      2.00000
      3     -13.6204      2.00000
      4     -11.7602      2.00000
      5     -11.7441      2.00000
      6      -8.5539      2.00000
      7      -8.2377      2.00000
      8      -7.1710      2.00000
      9      -1.6770      0.00000
     10      -0.8145      0.00000
     11      -0.4678      0.00000
     12      -0.0039      0.00000

 k-point     4 :      -0.2500   -0.2500    0.2500
  band No.  band energies     occupation 
      1     -24.0227      2.00000
      2     -18.9640      2.00000
      3     -13.6204      2.00000
      4     -11.7602      2.00000
      5     -11.7441      2.00000
      6      -8.5539      2.00000
      7      -8.2377      2.00000
      8      -7.1710      2.00000
      9      -1.6770      0.00000
     10      -0.8145      0.00000
     11      -0.4678      0.00000
     12      -0.0024      0.00000


--------------------------------------------------------------------------------------------------------


 soft charge-density along one line, spin component           1
         0         1         2         3         4         5         6         7         8         9
 total charge-density along one line
 
 pseudopotential strength for first ion, spin component:           1
 -2.361  -4.072  -0.002   0.000  -0.001
 -4.072  -6.938  -0.005   0.001  -0.002
 -0.002  -0.005  -0.330  -0.001   0.001
  0.000   0.001  -0.001  -0.334   0.000
 -0.001  -0.002   0.001   0.000  -0.334
 total augmentation occupancy for first ion, spin component:           1
  3.527  -0.635   0.417  -0.076   0.138
 -0.635   0.132  -0.077   0.014  -0.026
  0.417  -0.077   0.051  -0.008   0.014
 -0.076   0.014  -0.008   0.010  -0.003
  0.138  -0.026   0.014  -0.003   0.011


------------------------ aborting loop because EDIFF is reached ----------------------------------------


    CHARGE:  cpu time    5.9121: real time    5.9231
    FORLOC:  cpu time    2.3686: real time    2.3741
    FORNL :  cpu time   17.7773: real time   17.8117
    STRESS:  cpu time   51.5082: real time   51.6083
    FORCOR:  cpu time   17.2434: real time   17.2754
    FORHAR:  cpu time    6.0071: real time    6.0187
    MIXING:  cpu time    1.1498: real time    1.1520
    OFIELD:  cpu time    0.0000: real time    0.0000

  FORCE on cell =-STRESS in cart. coord.  units (eV):
  Direction    XX          YY          ZZ          XY          YZ          ZX
  --------------------------------------------------------------------------------------
  Alpha Z     0.04144     0.04144     0.04144
  Ewald     549.72995    77.99643    79.65879  -100.75413    37.25760   -84.52244
  Hartree   570.16728   306.29155   306.36914   -44.49990    13.66887   -33.63151
  E(xc)     -59.04300   -60.06433   -60.05746    -0.31486     0.12933    -0.29465
  Local   -1267.01162  -555.26005  -556.45875   137.55901   -46.59220   110.92789
  n-local   -25.25963   -24.73768   -24.73824     1.74640    -0.64940     2.01616
  augment     0.55152     0.94122     0.94524     0.08300    -0.02479     0.06288
  Kinetic   231.42501   253.68496   253.09725     6.09553    -3.92886     5.44498
  Fock        0.00000     0.00000     0.00000     0.00000     0.00000     0.00000
  -------------------------------------------------------------------------------------
  Total       0.60095    -1.10646    -1.14257    -0.08494    -0.13945     0.00330
  in kB       0.03566    -0.06566    -0.06780    -0.00504    -0.00828     0.00020
  external pressure =       -0.03 kB  Pullay stress =        0.00 kB


 VOLUME and BASIS-vectors are now :
 -----------------------------------------------------------------------------
  energy-cutoff  :      400.00
  volume of cell :    27000.00
      direct lattice vectors                 reciprocal lattice vectors
    30.000000000  0.000000000  0.000000000     0.033333333  0.000000000  0.000000000
     0.000000000 30.000000000  0.000000000     0.000000000  0.033333333  0.000000000
     0.000000000  0.000000000 30.000000000     0.000000000  0.000000000  0.033333333

  length of vectors
    30.000000000 30.000000000 30.000000000     0.033333333  0.033333333  0.033333333


 FORCES acting on ions
    electron-ion (+dipol)            ewald-force                    non-local-force                 convergence-correction
 -----------------------------------------------------------------------------------------------
   0.341E+02 0.570E+02 -.112E+02   -.361E+02 -.623E+02 0.122E+02   0.174E+01 0.534E+01 -.968E+00   -.647E-04 0.174E-03 -.371E-04
   0.292E+02 -.167E+02 0.584E+02   -.307E+02 0.182E+02 -.637E+02   0.126E+01 -.139E+01 0.538E+01   -.821E-04 -.438E-04 0.168E-03
   0.387E+02 -.392E+02 -.387E+02   -.412E+02 0.429E+02 0.424E+02   0.261E+01 -.364E+01 -.365E+01   0.951E-05 -.132E-03 -.136E-03
   0.123E+03 -.945E+01 -.247E+01   -.130E+03 0.945E+01 0.191E+01   0.752E+01 -.105E-01 0.544E+00   -.110E-02 0.585E-04 -.188E-06
   -.206E+03 0.749E+02 0.752E+02   0.227E+03 -.851E+02 -.858E+02   -.204E+02 0.104E+02 0.110E+02   0.529E-03 -.282E-03 -.304E-03
   -.119E+02 -.685E+02 -.830E+02   0.113E+02 0.769E+02 0.930E+02   0.442E+00 -.884E+01 -.106E+02   -.147E-02 0.508E-03 0.499E-03
 -----------------------------------------------------------------------------------------------
   0.688E+01 -.184E+01 -.173E+01   0.000E+00 0.000E+00 0.000E+00   -.687E+01 0.183E+01 0.173E+01   -.218E-02 0.283E-03 0.190E-03
 
 
 POSITION                                       TOTAL-FORCE (eV/Angst)
 -----------------------------------------------------------------------------------
     14.18697     14.05228     15.25349        -0.228538      0.066095      0.064474
     14.27912     15.35118     14.02730        -0.244064      0.069556      0.053980
     14.04208     15.77293     15.75948         0.068958      0.058901      0.079391
     14.52365     15.07990     15.06285        -0.090255     -0.010552     -0.017194
     16.94866     14.63548     14.70267         0.655852      0.243372      0.341245
     15.94829     15.07586     15.15976        -0.161952     -0.427373     -0.521896
 -----------------------------------------------------------------------------------
    total drift:                                0.004881     -0.014332      0.006257


--------------------------------------------------------------------------------------------------------



  FREE ENERGIE OF THE ION-ELECTRON SYSTEM (eV)
  ---------------------------------------------------
  free  energy   TOTEN  =       -35.38605670 eV

  energy  without entropy=      -35.38605670  energy(sigma->0) =      -35.38605670
 


--------------------------------------------------------------------------------------------------------


    POTLOK:  cpu time   15.3757: real time   15.4058


--------------------------------------------------------------------------------------------------------


 NEB: the previous image is higher in energy: F
 NEB: the next image is higher in energy    : T
 NEB: only next energy greater

 NEB: Tangent
 ----------------------------------------------
      0.19627     -0.05217     -0.10235
      0.20441     -0.02887     -0.02923
     -0.01961     -0.07684     -0.03606
      0.08644      0.01174      0.01656
     -0.58350     -0.25120     -0.31966
      0.15243      0.37652      0.46752

 NEB: forces: par spring, perp REAL, dneb     0.023951    0.104536    0.000000
 NEB: distance to prev, next image, angle between     0.168290    0.173080  162.174838
 NEB: projections on to tangent (spring, REAL)     0.023951   -1.107835

 stress matrix after NEB project (eV)
      0.60095     -0.08494      0.00330
     -0.08494     -1.10646     -0.13945
      0.00330     -0.13945     -1.14257
  FORCES: max atom, RMS     0.066802    0.043782
  FORCE total and by dimension    0.107244    0.051368
  Stress total and by dimension    1.715872    1.142574
 
 OPT: Flag T
 OPT: FIRE Step
 OPT: FIRE, TIMESTEP      0.10000
 OPT: FIRE, alpha         0.10000


--------------------------------------------------------------------------------------------------------


    WAVPRE:  cpu time    7.4969: real time    7.5134
 FEWALD executed in parallel
    FEWALD:  cpu time    0.0000: real time    0.0003
    ORTHCH:  cpu time    5.9431: real time    5.9567
     LOOP+:  cpu time 2807.3832: real time 2813.8183


----------------------------------------- Iteration    2(   1)  ---------------------------------------


    POTLOK:  cpu time   21.9537: real time   22.0062
    SETDIJ:  cpu time    0.0070: real time    0.0064
     EDDAV:  cpu time   73.9598: real time   74.1351
       DOS:  cpu time    0.0000: real time    0.0002
    CHARGE:  cpu time    6.1101: real time    6.1254
    MIXING:  cpu time    0.5579: real time    0.5588
    --------------------------------------------
      LOOP:  cpu time  102.5914: real time  102.8360

 eigenvalue-minimisations  :   104
 total energy-change (2. order) : 0.9518677E-04  (-0.7655074E-04)
 number of electron      15.9999974 magnetization 
 augmentation part        0.4447182 magnetization 

 Broyden mixing:
  rms(total) = 0.86768E-03    rms(broyden)= 0.86422E-03
  rms(prec ) = 0.88401E-03
  weight for this iteration     100.00

 Free energy of the ion-electron system (eV)
  ---------------------------------------------------
  alpha Z        PSCENC =         0.04144063
  Ewald energy   TEWEN  =       707.37179307
  -Hartree energ DENC   =     -1182.81994892
  -exchange      EXHF   =         0.00000000
  -V(xc)+E(xc)   XCENC  =        54.85639489
  PAW double counting   =      1318.58859804    -1321.44949376
  entropy T*S    EENTRO =         0.00000000
  eigenvalues    EBANDS =      -208.14006665
  atomic energy  EATOM  =       596.16534815
  Solvation  Ediel_sol  =         0.00000000
  ---------------------------------------------------
  free energy    TOTEN  =       -35.38593456 eV

  energy without entropy =      -35.38593456  energy(sigma->0) =      -35.38593456


--------------------------------------------------------------------------------------------------------




----------------------------------------- Iteration    2(   2)  ---------------------------------------


    POTLOK:  cpu time   18.9631: real time   19.0082
    SETDIJ:  cpu time    0.0060: real time    0.0064
     EDDAV:  cpu time   71.4751: real time   71.6447
       DOS:  cpu time    0.0000: real time    0.0002
    CHARGE:  cpu time    7.1879: real time    7.2052
    MIXING:  cpu time    0.7339: real time    0.7345
    --------------------------------------------
      LOOP:  cpu time   98.3670: real time   98.6034

 eigenvalue-minimisations  :    96
 total energy-change (2. order) :-0.4426117E-05  (-0.7387927E-06)
 number of electron      15.9999974 magnetization 
 augmentation part        0.4446992 magnetization 

 Broyden mixing:
  rms(total) = 0.52677E-03    rms(broyden)= 0.52649E-03
  rms(prec ) = 0.53757E-03
  weight for this iteration     100.00

 eigenvalues of (default mixing * dielectric matrix)
  average eigenvalue GAMMA=   1.9502
  1.9502

 Free energy of the ion-electron system (eV)
  ---------------------------------------------------
  alpha Z        PSCENC =         0.04144063
  Ewald energy   TEWEN  =       707.37179307
  -Hartree energ DENC   =     -1182.81800143
  -exchange      EXHF   =         0.00000000
  -V(xc)+E(xc)   XCENC  =        54.85623678
  PAW double counting   =      1318.57340610    -1321.43425378
  entropy T*S    EENTRO =         0.00000000
  eigenvalues    EBANDS =      -208.14190851
  atomic energy  EATOM  =       596.16534815
  Solvation  Ediel_sol  =         0.00000000
  ---------------------------------------------------
  free energy    TOTEN  =       -35.38593898 eV

  energy without entropy =      -35.38593898  energy(sigma->0) =      -35.38593898


--------------------------------------------------------------------------------------------------------




----------------------------------------- Iteration    2(   3)  ---------------------------------------


    POTLOK:  cpu time   21.4237: real time   21.4741
[...]
  Solvation  Ediel_sol  =         0.00000000
  ---------------------------------------------------
  free energy    TOTEN  =       -35.37094095 eV

  energy without entropy =      -35.37094095  energy(sigma->0) =      -35.37094095


--------------------------------------------------------------------------------------------------------




----------------------------------------- Iteration   28(   2)  ---------------------------------------


    POTLOK:  cpu time   19.8010: real time   19.8488
    SETDIJ:  cpu time    0.0070: real time    0.0066
     EDDAV:  cpu time   45.4421: real time   45.5534
       DOS:  cpu time    0.0000: real time    0.0002
    CHARGE:  cpu time    6.1571: real time    6.1719
    MIXING:  cpu time    0.6069: real time    0.6079
    --------------------------------------------
      LOOP:  cpu time   72.0161: real time   72.1938

 eigenvalue-minimisations  :    64
 total energy-change (2. order) : 0.1256076E-05  (-0.1135965E-05)
 number of electron      15.9999974 magnetization 
 augmentation part        0.4445802 magnetization 

 Broyden mixing:
  rms(total) = 0.40879E-03    rms(broyden)= 0.40844E-03
  rms(prec ) = 0.42037E-03
  weight for this iteration     100.00

 eigenvalues of (default mixing * dielectric matrix)
  average eigenvalue GAMMA=   1.0186
  1.0186

 Free energy of the ion-electron system (eV)
  ---------------------------------------------------
  alpha Z        PSCENC =         0.04144063
  Ewald energy   TEWEN  =       707.78293593
  -Hartree energ DENC   =     -1183.24004274
  -exchange      EXHF   =         0.00000000
  -V(xc)+E(xc)   XCENC  =        54.85973133
  PAW double counting   =      1318.77656742    -1321.63758193
  entropy T*S    EENTRO =         0.00000000
  eigenvalues    EBANDS =      -208.11933848
  atomic energy  EATOM  =       596.16534815
  Solvation  Ediel_sol  =         0.00000000
  ---------------------------------------------------
  free energy    TOTEN  =       -35.37093970 eV

  energy without entropy =      -35.37093970  energy(sigma->0) =      -35.37093970


--------------------------------------------------------------------------------------------------------




----------------------------------------- Iteration   28(   3)  ---------------------------------------


    POTLOK:  cpu time   20.8588: real time   20.9108
    SETDIJ:  cpu time    0.0060: real time    0.0064
     EDDAV:  cpu time   42.1936: real time   42.2949
       DOS:  cpu time    0.0000: real time    0.0002
    CHARGE:  cpu time    5.5032: real time    5.5170
    MIXING:  cpu time    0.6799: real time    0.6816
    --------------------------------------------
      LOOP:  cpu time   69.2445: real time   69.4158

 eigenvalue-minimisations  :    48
 total energy-change (2. order) : 0.1884146E-06  (-0.2049654E-06)
 number of electron      15.9999974 magnetization 
 augmentation part        0.4445836 magnetization 

 Broyden mixing:
  rms(total) = 0.24016E-03    rms(broyden)= 0.24010E-03
  rms(prec ) = 0.24503E-03
  weight for this iteration     100.00

 eigenvalues of (default mixing * dielectric matrix)
  average eigenvalue GAMMA=   1.4059
  0.9880  1.8239

 Free energy of the ion-electron system (eV)
  ---------------------------------------------------
  alpha Z        PSCENC =         0.04144063
  Ewald energy   TEWEN  =       707.78293593
  -Hartree energ DENC   =     -1183.23465977
  -exchange      EXHF   =         0.00000000
  -V(xc)+E(xc)   XCENC  =        54.85947151
  PAW double counting   =      1318.70003693    -1321.56095471
  entropy T*S    EENTRO =         0.00000000
  eigenvalues    EBANDS =      -208.12455818
  atomic energy  EATOM  =       596.16534815
  Solvation  Ediel_sol  =         0.00000000
  ---------------------------------------------------
  free energy    TOTEN  =       -35.37093951 eV

  energy without entropy =      -35.37093951  energy(sigma->0) =      -35.37093951


--------------------------------------------------------------------------------------------------------




----------------------------------------- Iteration   28(   4)  ---------------------------------------


    POTLOK:  cpu time   18.9561: real time   19.0035
    SETDIJ:  cpu time    0.0070: real time    0.0065
     EDDAV:  cpu time   40.0569: real time   40.1533
       DOS:  cpu time    0.0000: real time    0.0002
    CHARGE:  cpu time    5.7451: real time    5.7590
    MIXING:  cpu time    0.6879: real time    0.6889
    --------------------------------------------
      LOOP:  cpu time   65.4551: real time   65.6242

 eigenvalue-minimisations  :    48
 total energy-change (2. order) :-0.2477020E-07  (-0.1219899E-06)
 number of electron      15.9999974 magnetization 
 augmentation part        0.4445991 magnetization 

 Broyden mixing:
  rms(total) = 0.99678E-04    rms(broyden)= 0.99585E-04
  rms(prec ) = 0.10267E-03
  weight for this iteration     100.00

 eigenvalues of (default mixing * dielectric matrix)
  average eigenvalue GAMMA=   1.3786
  1.8087  1.1635  1.1635

 Free energy of the ion-electron system (eV)
  ---------------------------------------------------
  alpha Z        PSCENC =         0.04144063
  Ewald energy   TEWEN  =       707.78293593
  -Hartree energ DENC   =     -1183.23033063
  -exchange      EXHF   =         0.00000000
  -V(xc)+E(xc)   XCENC  =        54.85925831
  PAW double counting   =      1318.60123538    -1321.46207039
  entropy T*S    EENTRO =         0.00000000
  eigenvalues    EBANDS =      -208.12875691
  atomic energy  EATOM  =       596.16534815
  Solvation  Ediel_sol  =         0.00000000
  ---------------------------------------------------
  free energy    TOTEN  =       -35.37093953 eV

  energy without entropy =      -35.37093953  energy(sigma->0) =      -35.37093953


--------------------------------------------------------------------------------------------------------




----------------------------------------- Iteration   28(   5)  ---------------------------------------


    POTLOK:  cpu time   19.4870: real time   19.5352
    SETDIJ:  cpu time    0.0070: real time    0.0067
     EDDAV:  cpu time   42.6755: real time   42.7784
       DOS:  cpu time    0.0000: real time    0.0002
    CHARGE:  cpu time    5.9991: real time    6.0152
    MIXING:  cpu time    0.8179: real time    0.8194
    --------------------------------------------
      LOOP:  cpu time   68.9875: real time   69.1588

 eigenvalue-minimisations  :    48
 total energy-change (2. order) :-0.2288152E-07  (-0.2631009E-07)
 number of electron      15.9999974 magnetization 
 augmentation part        0.4445974 magnetization 

 Broyden mixing:
  rms(total) = 0.64355E-04    rms(broyden)= 0.64320E-04
  rms(prec ) = 0.66084E-04
  weight for this iteration     100.00

 eigenvalues of (default mixing * dielectric matrix)
  average eigenvalue GAMMA=   1.4788
  2.0807  2.0807  0.9116  0.8420

 Free energy of the ion-electron system (eV)
  ---------------------------------------------------
  alpha Z        PSCENC =         0.04144063
  Ewald energy   TEWEN  =       707.78293593
  -Hartree energ DENC   =     -1183.23168516
  -exchange      EXHF   =         0.00000000
  -V(xc)+E(xc)   XCENC  =        54.85932450
  PAW double counting   =      1318.58791241    -1321.44875958
  entropy T*S    EENTRO =         0.00000000
  eigenvalues    EBANDS =      -208.12745645
  atomic energy  EATOM  =       596.16534815
  Solvation  Ediel_sol  =         0.00000000
  ---------------------------------------------------
  free energy    TOTEN  =       -35.37093956 eV

  energy without entropy =      -35.37093956  energy(sigma->0) =      -35.37093956


--------------------------------------------------------------------------------------------------------




----------------------------------------- Iteration   28(   6)  ---------------------------------------


    POTLOK:  cpu time   20.7688: real time   20.8199
    SETDIJ:  cpu time    0.0070: real time    0.0064
     EDDAV:  cpu time   38.3442: real time   38.4380
       DOS:  cpu time    0.0000: real time    0.0002
    --------------------------------------------
      LOOP:  cpu time   59.1230: real time   59.2690

 eigenvalue-minimisations  :    48
 total energy-change (2. order) :-0.6085679E-07  (-0.9637273E-08)
 number of electron      15.9999974 magnetization 
 augmentation part        0.4445974 magnetization 

 Free energy of the ion-electron system (eV)
  ---------------------------------------------------
  alpha Z        PSCENC =         0.04144063
  Ewald energy   TEWEN  =       707.78293593
  -Hartree energ DENC   =     -1183.23255141
  -exchange      EXHF   =         0.00000000
  -V(xc)+E(xc)   XCENC  =        54.85937024
  PAW double counting   =      1318.58044129    -1321.44129874
  entropy T*S    EENTRO =         0.00000000
  eigenvalues    EBANDS =      -208.12662570
  atomic energy  EATOM  =       596.16534815
  Solvation  Ediel_sol  =         0.00000000
  ---------------------------------------------------
  free energy    TOTEN  =       -35.37093962 eV

  energy without entropy =      -35.37093962  energy(sigma->0) =      -35.37093962


--------------------------------------------------------------------------------------------------------




 average (electrostatic) potential at core
  the test charge radii are     0.5201  0.6991  0.7089
  (the norm of the test charge is              1.0000)
       1 -42.9876       2 -42.9825       3 -42.9543       4 -60.4136       5 -59.5174
       6 -74.7448
 
 
 
 E-fermi :  -6.2024     XC(G=0):  -0.0594     alpha+bet : -0.0137


 k-point     1 :       0.2500    0.2500    0.2500
  band No.  band energies     occupation 
      1     -24.0307      2.00000
      2     -18.9507      2.00000
      3     -13.6016      2.00000
      4     -11.7693      2.00000
      5     -11.7459      2.00000
      6      -8.5594      2.00000
      7      -8.2343      2.00000
      8      -7.1714      2.00000
      9      -1.7021      0.00000
     10      -0.8161      0.00000
     11      -0.4621      0.00000
     12       0.0249      0.00000

 k-point     2 :      -0.2500    0.2500    0.2500
  band No.  band energies     occupation 
      1     -24.0307      2.00000
      2     -18.9507      2.00000
      3     -13.6016      2.00000
      4     -11.7693      2.00000
      5     -11.7459      2.00000
      6      -8.5594      2.00000
      7      -8.2343      2.00000
      8      -7.1714      2.00000
      9      -1.7021      0.00000
     10      -0.8161      0.00000
     11      -0.4621      0.00000
     12       0.0275      0.00000

 k-point     3 :       0.2500   -0.2500    0.2500
  band No.  band energies     occupation 
      1     -24.0307      2.00000
      2     -18.9507      2.00000
      3     -13.6016      2.00000
      4     -11.7693      2.00000
      5     -11.7459      2.00000
      6      -8.5594      2.00000
      7      -8.2343      2.00000
      8      -7.1714      2.00000
      9      -1.7021      0.00000
     10      -0.8161      0.00000
     11      -0.4621      0.00000
     12       0.0275      0.00000

 k-point     4 :      -0.2500   -0.2500    0.2500
  band No.  band energies     occupation 
      1     -24.0307      2.00000
      2     -18.9507      2.00000
      3     -13.6016      2.00000
      4     -11.7693      2.00000
      5     -11.7459      2.00000
      6      -8.5594      2.00000
      7      -8.2343      2.00000
      8      -7.1714      2.00000
      9      -1.7021      0.00000
     10      -0.8161      0.00000
     11      -0.4621      0.00000
     12       0.0277      0.00000


--------------------------------------------------------------------------------------------------------


 soft charge-density along one line, spin component           1
         0         1         2         3         4         5         6         7         8         9
 total charge-density along one line
 
 pseudopotential strength for first ion, spin component:           1
 -2.361  -4.072  -0.002   0.000  -0.001
 -4.072  -6.938  -0.005   0.001  -0.002
 -0.002  -0.005  -0.330  -0.001   0.001
  0.000   0.001  -0.001  -0.334   0.000
 -0.001  -0.002   0.001   0.000  -0.334
 total augmentation occupancy for first ion, spin component:           1
  3.528  -0.635   0.418  -0.072   0.138
 -0.635   0.132  -0.077   0.014  -0.026
  0.418  -0.077   0.051  -0.007   0.014
 -0.072   0.014  -0.007   0.010  -0.003
  0.138  -0.026   0.014  -0.003   0.011


------------------------ aborting loop because EDIFF is reached ----------------------------------------


    CHARGE:  cpu time    5.5212: real time    5.5338
    FORLOC:  cpu time    2.3766: real time    2.3823
    FORNL :  cpu time   18.6892: real time   18.7356
    STRESS:  cpu time   57.0983: real time   57.2351
    FORCOR:  cpu time   20.3319: real time   20.3798
    FORHAR:  cpu time    7.4939: real time    7.5109
    MIXING:  cpu time    0.7929: real time    0.7944
    OFIELD:  cpu time    0.0000: real time    0.0000

  FORCE on cell =-STRESS in cart. coord.  units (eV):
  Direction    XX          YY          ZZ          XY          YZ          ZX
  --------------------------------------------------------------------------------------
  Alpha Z     0.04144     0.04144     0.04144
  Ewald     543.52758    81.23104    83.02418  -105.63582    40.16339   -89.41087
  Hartree   567.72281   307.75087   307.75732   -47.18590    14.84687   -36.19715
  E(xc)     -59.06788   -60.05724   -60.04924    -0.32634     0.13896    -0.30734
  Local   -1258.92502  -559.70245  -560.89933   144.91160   -50.42636   118.14838
  n-local   -25.13283   -24.78628   -24.80340     1.77059    -0.71345     2.06087
  augment     0.55634     0.93790     0.94122     0.08647    -0.02667     0.06636
  Kinetic   231.97463   253.48188   252.83783     6.28773    -4.11859     5.64818
  Fock        0.00000     0.00000     0.00000     0.00000     0.00000     0.00000
  -------------------------------------------------------------------------------------
  Total       0.69705    -1.10285    -1.14998    -0.09166    -0.13585     0.00843
  in kB       0.04136    -0.06544    -0.06824    -0.00544    -0.00806     0.00050
  external pressure =       -0.03 kB  Pullay stress =        0.00 kB


 VOLUME and BASIS-vectors are now :
 -----------------------------------------------------------------------------
  energy-cutoff  :      400.00
  volume of cell :    27000.00
      direct lattice vectors                 reciprocal lattice vectors
    30.000000000  0.000000000  0.000000000     0.033333333  0.000000000  0.000000000
     0.000000000 30.000000000  0.000000000     0.000000000  0.033333333  0.000000000
     0.000000000  0.000000000 30.000000000     0.000000000  0.000000000  0.033333333

  length of vectors
    30.000000000 30.000000000 30.000000000     0.033333333  0.033333333  0.033333333


 FORCES acting on ions
    electron-ion (+dipol)            ewald-force                    non-local-force                 convergence-correction
 -----------------------------------------------------------------------------------------------
   0.344E+02 0.570E+02 -.108E+02   -.364E+02 -.623E+02 0.118E+02   0.174E+01 0.536E+01 -.916E+00   0.621E-04 -.343E-04 -.803E-05
   0.292E+02 -.177E+02 0.581E+02   -.308E+02 0.192E+02 -.635E+02   0.125E+01 -.147E+01 0.537E+01   0.647E-04 0.552E-06 -.268E-04
   0.383E+02 -.389E+02 -.393E+02   -.408E+02 0.426E+02 0.431E+02   0.258E+01 -.361E+01 -.370E+01   0.313E-04 0.218E-05 0.134E-04
   0.123E+03 -.108E+02 -.365E+01   -.131E+03 0.109E+02 0.313E+01   0.755E+01 -.706E-01 0.498E+00   0.570E-03 -.734E-04 -.333E-04
   -.204E+03 0.780E+02 0.786E+02   0.225E+03 -.884E+02 -.897E+02   -.200E+02 0.107E+02 0.114E+02   -.321E-03 0.190E-03 0.250E-03
   -.144E+02 -.695E+02 -.848E+02   0.140E+02 0.781E+02 0.952E+02   0.171E+00 -.899E+01 -.108E+02   0.196E-03 -.947E-04 -.155E-04
 -----------------------------------------------------------------------------------------------
   0.672E+01 -.192E+01 -.181E+01   0.000E+00 0.142E-13 -.142E-13   -.672E+01 0.191E+01 0.182E+01   0.603E-03 -.988E-05 0.180E-03
 
 
 POSITION                                       TOTAL-FORCE (eV/Angst)
 -----------------------------------------------------------------------------------
     14.18997     14.05468     15.24829        -0.262200      0.065914      0.059754
     14.28420     15.36904     14.03650        -0.275975      0.067354      0.052527
     14.05188     15.77061     15.77503         0.081310      0.056862      0.079390
     14.52725     15.08363     15.06824        -0.077205     -0.011551     -0.020949
     16.93756     14.61126     14.68057         0.702805      0.232971      0.334264
     15.95292     15.06728     15.15614        -0.168735     -0.411550     -0.504985
 -----------------------------------------------------------------------------------
    total drift:                                0.004282     -0.009267      0.008964


--------------------------------------------------------------------------------------------------------



  FREE ENERGIE OF THE ION-ELECTRON SYSTEM (eV)
  ---------------------------------------------------
  free  energy   TOTEN  =       -35.37093962 eV

  energy  without entropy=      -35.37093962  energy(sigma->0) =      -35.37093962
 
 d Force =-0.2082290E-03[-0.214E-03,-0.202E-03]  d Energy =-0.2087853E-03 0.556E-06
 d Force = 0.3273065E-01[ 0.328E-01, 0.327E-01]  d Ewald  = 0.3273065E-01-0.408E-08


--------------------------------------------------------------------------------------------------------


    POTLOK:  cpu time   20.0520: real time   20.0985


--------------------------------------------------------------------------------------------------------


 NEB: the previous image is higher in energy: F
 NEB: the next image is higher in energy    : T
 NEB: only next energy greater

 NEB: Tangent
 ----------------------------------------------
      0.21799     -0.04926     -0.04590
      0.22472     -0.07765     -0.04515
     -0.04845     -0.04041     -0.07309
      0.07147      0.01150      0.01763
     -0.61279     -0.21443     -0.30172
      0.13628      0.37605      0.44943

 NEB: forces: par spring, perp REAL, dneb     0.036954    0.052668    0.000000
 NEB: distance to prev, next image, angle between     0.187758    0.195148  161.382375
 NEB: projections on to tangent (spring, REAL)     0.036954   -1.137024

 stress matrix after NEB project (eV)
      0.69705     -0.09166      0.00843
     -0.09166     -1.10285     -0.13585
      0.00843     -0.13585     -1.14998
  FORCES: max atom, RMS     0.038525    0.026266
  FORCE total and by dimension    0.064339    0.029927
  Stress total and by dimension    1.754562    1.149984
 OPT: skip step - force has converged


--------------------------------------------------------------------------------------------------------


  
 reached required accuracy - stopping structural energy minimisation
     LOOP+:  cpu time  739.1226: real time  740.8196
    4ORBIT:  cpu time    0.0000: real time    0.0000

 total amount of memory used by VASP on root node  3203888. kBytes
========================================================================

   base      :      30000. kBytes
   nonlr-proj:        692. kBytes
   fftplans  :     924480. kBytes
   grid      :    1872000. kBytes
   one-center:         18. kBytes
   wavefun   :     376698. kBytes
 
  
  
 General timing and accounting informations for this job:
 ========================================================
  
                  Total CPU time used (sec):    22535.062
                            User time (sec):    22236.731
                          System time (sec):      298.333
                         Elapsed time (sec):    22605.853
  
                   Maximum memory used (kb):     4783056.
                   Average memory used (kb):           0.
  
                          Minor page faults:      2995602
                          Major page faults:            5
                 Voluntary context switches:         3684
