unknown system                          
           1
    30.000000    0.000000    0.000000
     0.000000   30.000000    0.000000
     0.000000    0.000000   30.000000
   H    C    N 
   3   2   1
Direct configuration=     1
   0.47289673  0.46841175  0.50843243
   0.47596652  0.51171830  0.46758354
   0.46808494  0.52575508  0.52532885
   0.48412432  0.50266412  0.50209553
   0.56495366  0.48783562  0.49008204
   0.53161322  0.50252842  0.50532783
Direct configuration=     2
   0.47289459  0.46841553  0.50840030
   0.47596091  0.51174345  0.46759706
   0.46811422  0.52573850  0.52535541
   0.48412997  0.50266610  0.50209707
   0.56494427  0.48781021  0.49006949
   0.53162270  0.50252360  0.50532852
Direct configuration=     3
   0.47289692  0.46841871  0.50835765
   0.47595999  0.51178248  0.46761622
   0.46815365  0.52571849  0.52539671
   0.48414016  0.50267015  0.50210113
   0.56492675  0.48777033  0.49004659
   0.53162943  0.50251300  0.50532621
Direct configuration=     4
   0.47290871  0.46841941  0.50831141
   0.47597086  0.51183625  0.46764028
   0.46819804  0.52569926  0.52545232
   0.48415285  0.50267835  0.50211025
   0.56489937  0.48771363  0.49000805
   0.53162893  0.50249358  0.50531821
Direct configuration=     5
   0.47293305  0.46841772  0.50826952
   0.47599856  0.51190542  0.46766927
   0.46824126  0.52568448  0.52552043
   0.48416148  0.50269232  0.50212650
   0.56485467  0.48764079  0.48995208
   0.53163138  0.50245874  0.50529838
Direct configuration=     6
   0.47297036  0.46841571  0.50823926
   0.47604487  0.51199022  0.46770388
   0.46827701  0.52567686  0.52559879
   0.48416516  0.50271194  0.50215128
   0.56480271  0.48754300  0.48986679
   0.53162997  0.50241244  0.50527193
Direct configuration=     7
   0.47302068  0.46841774  0.50822615
   0.47611235  0.51210189  0.46775015
   0.46830285  0.52567826  0.52569415
   0.48416520  0.50273859  0.50218947
   0.56473729  0.48740094  0.48973076
   0.53163627  0.50234867  0.50523711
Direct configuration=     8
   0.47306608  0.46842937  0.50823654
   0.47618358  0.51223465  0.46780927
   0.46831831  0.52568718  0.52579679
   0.48416830  0.50277007  0.50223877
   0.56465413  0.48722535  0.48955348
   0.53167837  0.50226331  0.50518944
Direct configuration=     9
   0.47308133  0.46845596  0.50826715
   0.47623007  0.51236459  0.46787914
   0.46833650  0.52569535  0.52588505
   0.48420335  0.50280219  0.50229088
   0.56461825  0.48701689  0.48933595
   0.53168940  0.50219678  0.50516405
Direct configuration=    10
   0.47307334  0.46845914  0.50826850
   0.47622171  0.51236020  0.46788010
   0.46833977  0.52569437  0.52588054
   0.48420170  0.50280118  0.50228937
   0.56459737  0.48703324  0.48935276
   0.53172229  0.50218518  0.50515120
Direct configuration=    11
   0.47305791  0.46846568  0.50827111
   0.47620550  0.51234955  0.46788163
   0.46834703  0.52569207  0.52586999
   0.48420457  0.50279877  0.50228638
   0.56457889  0.48705184  0.48937082
   0.53175599  0.50217898  0.50514314
Direct configuration=    12
   0.47305690  0.46846619  0.50827130
   0.47620442  0.51234828  0.46788161
   0.46834777  0.52569188  0.52586888
   0.48420638  0.50279846  0.50228615
   0.56458419  0.48704935  0.48936791
   0.53174955  0.50218311  0.50514729
Direct configuration=    13
   0.47305459  0.46846726  0.50827167
   0.47620193  0.51234572  0.46788159
   0.46834936  0.52569147  0.52586664
   0.48420984  0.50279783  0.50228564
   0.56459351  0.48704502  0.48936282
   0.53173861  0.50219073  0.50515492
Direct configuration=    14
   0.47305038  0.46846907  0.50827223
   0.47619739  0.51234170  0.46788162
   0.46835213  0.52569079  0.52586312
   0.48421470  0.50279682  0.50228475
   0.56460423  0.48704016  0.48935691
   0.53172691  0.50220069  0.50516487
Direct configuration=    15
   0.47304379  0.46847170  0.50827295
   0.47619026  0.51233624  0.46788175
   0.46835633  0.52568982  0.52585840
   0.48422028  0.50279538  0.50228338
   0.56461219  0.48703681  0.48935236
   0.53172002  0.50221087  0.50517496
Direct configuration=    16
   0.47304329  0.46847187  0.50827298
   0.47618971  0.51233595  0.46788178
   0.46835666  0.52568977  0.52585817
   0.48422038  0.50279530  0.50228327
   0.56461138  0.48703722  0.48935276
   0.53172131  0.50221079  0.50517485
Direct configuration=    17
   0.47304228  0.46847222  0.50827303
   0.47618862  0.51233537  0.46788182
   0.46835733  0.52568966  0.52585770
   0.48422058  0.50279513  0.50228307
   0.56460981  0.48703803  0.48935353
   0.53172381  0.50221066  0.50517468
Direct configuration=    18
   0.47304079  0.46847274  0.50827312
   0.47618698  0.51233448  0.46788190
   0.46835835  0.52568950  0.52585700
   0.48422091  0.50279487  0.50228277
   0.56460757  0.48703916  0.48935459
   0.53172741  0.50221055  0.50517451
Direct configuration=    19
   0.47303881  0.46847343  0.50827323
   0.47618480  0.51233328  0.46788199
   0.46835972  0.52568930  0.52585606
   0.48422140  0.50279454  0.50228238
   0.56460479  0.48704053  0.48935587
   0.53173188  0.50221054  0.50517443
Direct configuration=    20
   0.47303634  0.46847430  0.50827337
   0.47618209  0.51233175  0.46788211
   0.46836148  0.52568905  0.52585487
   0.48422209  0.50279411  0.50228189
   0.56460167  0.48704204  0.48935723
   0.53173698  0.50221079  0.50517459
Direct configuration=    21
   0.47303340  0.46847535  0.50827353
   0.47617885  0.51232985  0.46788224
   0.46836365  0.52568876  0.52585342
   0.48422306  0.50279360  0.50228130
   0.56459843  0.48704352  0.48935850
   0.53174234  0.50221145  0.50517516
Direct configuration=    22
   0.47302966  0.46847672  0.50827375
   0.47617471  0.51232732  0.46788240
   0.46836656  0.52568841  0.52585153
   0.48422447  0.50279295  0.50228056
   0.56459502  0.48704493  0.48935960
   0.53174808  0.50221287  0.50517645
Direct configuration=    23
   0.47302507  0.46847843  0.50827404
   0.47616961  0.51232405  0.46788259
   0.46837030  0.52568802  0.52584916
   0.48422647  0.50279214  0.50227966
   0.56459180  0.48704603  0.48936023
   0.53175367  0.50221538  0.50517880
Direct configuration=    24
   0.47301966  0.46848050  0.50827439
   0.47616356  0.51231997  0.46788280
   0.46837498  0.52568761  0.52584627
   0.48422915  0.50279118  0.50227861
   0.56458910  0.48704654  0.48936010
   0.53175850  0.50221930  0.50518254
Direct configuration=    25
   0.47301348  0.46848296  0.50827485
   0.47615658  0.51231495  0.46788301
   0.46838073  0.52568726  0.52584286
   0.48423258  0.50279008  0.50227742
   0.56458719  0.48704619  0.48935890
   0.53176201  0.50222496  0.50518794
Direct configuration=    26
   0.47300658  0.46848583  0.50827544
   0.47614870  0.51230886  0.46788323
   0.46838767  0.52568705  0.52583891
   0.48423679  0.50278888  0.50227612
   0.56458607  0.48704472  0.48935636
   0.53176382  0.50223263  0.50519525
Direct configuration=    27
   0.47299907  0.46848918  0.50827626
   0.47613995  0.51230146  0.46788344
   0.46839604  0.52568716  0.52583445
   0.48424174  0.50278763  0.50227476
   0.56458532  0.48704195  0.48935229
   0.53176394  0.50224251  0.50520453
Direct configuration=    28
   0.47299907  0.46848918  0.50827626
   0.47613995  0.51230146  0.46788344
   0.46839604  0.52568716  0.52583445
   0.48424174  0.50278763  0.50227476
   0.56458532  0.48704195  0.48935229
   0.53176394  0.50224251  0.50520453
