 running on   15 total cores
 each image running on    1 cores
 distrk:  each k-point on    1 cores,    1 groups
 distr:  one band on    1 cores,    1 groups
 vasp.5.4.1 24Jun15 (build Jan 13 2020 12:58:22) complex                        
  
 POSCAR found type information on POSCAR  H  C  N  O 
 01/POSCAR found :  4 types and      22 ions
 scaLAPACK will be used
 LDA part: xc-table for Pade appr. of Perdew
 POSCAR found type information on POSCAR  H  C  N  O 
 00/POSCAR found :  4 types and      22 ions
 POSCAR found type information on POSCAR  H  C  N  O 
 16/POSCAR found :  4 types and      22 ions
 Jacobian:    50.2178792621697     
 POSCAR, INCAR and KPOINTS ok, starting setup
 WARNING: small aliasing (wrap around) errors must be expected
 FFT: planning ...
 WAVECAR not read
 entering main loop
       N       E                     dE             d eps       ncg     rms          rms(c)
DAV:   1     0.612006760366E+03    0.61201E+03   -0.79391E+03   392   0.485E+02
DAV:   2     0.276171917864E+03   -0.33583E+03   -0.32515E+03   571   0.928E+01
DAV:   3    -0.432232523246E+02   -0.31940E+03   -0.30935E+03   496   0.110E+02
DAV:   4    -0.136192709051E+03   -0.92969E+02   -0.92701E+02   398   0.810E+01
DAV:   5    -0.141921414053E+03   -0.57287E+01   -0.57076E+01   415   0.234E+01    0.196E+01
DAV:   6    -0.131827165367E+03    0.10094E+02   -0.24042E+01   407   0.201E+01    0.100E+01
DAV:   7    -0.130059120969E+03    0.17680E+01   -0.44582E+00   424   0.831E+00    0.516E+00
DAV:   8    -0.129573947211E+03    0.48517E+00   -0.87505E-01   432   0.404E+00    0.156E+00
DAV:   9    -0.129506405190E+03    0.67542E-01   -0.10374E-01   472   0.155E+00    0.571E-01
DAV:  10    -0.129496260752E+03    0.10144E-01   -0.26404E-02   432   0.836E-01    0.258E-01
DAV:  11    -0.129491578784E+03    0.46820E-02   -0.78185E-03   432   0.431E-01    0.160E-01
DAV:  12    -0.129493070143E+03   -0.14914E-02   -0.64144E-03   379   0.360E-01    0.978E-02
DAV:  13    -0.129499649304E+03   -0.65792E-02   -0.43663E-03   416   0.301E-01    0.562E-02
DAV:  14    -0.129506150291E+03   -0.65010E-02   -0.16449E-03   424   0.180E-01    0.367E-02
DAV:  15    -0.129513619460E+03   -0.74692E-02   -0.68787E-04   398   0.920E-02    0.222E-02
DAV:  16    -0.129519271418E+03   -0.56520E-02   -0.44129E-04   332   0.664E-02    0.131E-02
DAV:  17    -0.129522283078E+03   -0.30117E-02   -0.17032E-04   334   0.430E-02    0.759E-03
DAV:  18    -0.129523673963E+03   -0.13909E-02   -0.95578E-05   320   0.272E-02    0.523E-03
DAV:  19    -0.129524484532E+03   -0.81057E-03   -0.40979E-05   302   0.200E-02    0.311E-03
DAV:  20    -0.129524899729E+03   -0.41520E-03   -0.19556E-05   320   0.139E-02    0.231E-03
DAV:  21    -0.129525086474E+03   -0.18675E-03   -0.75012E-06   288   0.821E-03    0.117E-03
DAV:  22    -0.129525222860E+03   -0.13639E-03   -0.38676E-06   294   0.634E-03    0.104E-03
DAV:  23    -0.129525258609E+03   -0.35749E-04   -0.96050E-07   368   0.325E-03
   1 F= -.12952526E+03 E0= -.12952526E+03  d E =-.129525E+03
damped:  g(F)=  0.000E+00 g(S)=  0.000E+00 dE (1.order)= 0.000E+00
 bond charge predicted
       N       E                     dE             d eps       ncg     rms          rms(c)
DAV:   1    -0.129525409587E+03   -0.18673E-03   -0.24563E-02   332   0.804E-01    0.436E-02
DAV:   2    -0.129525470870E+03   -0.61283E-04   -0.82448E-04   464   0.127E-01    0.273E-02
DAV:   3    -0.129525464691E+03    0.61793E-05   -0.19947E-05   328   0.255E-02    0.154E-02
DAV:   4    -0.129525466146E+03   -0.14552E-05   -0.19965E-05   294   0.223E-02    0.291E-03
DAV:   5    -0.129525468319E+03   -0.21732E-05   -0.38694E-06   272   0.100E-02    0.183E-03
DAV:   6    -0.129525470102E+03   -0.17825E-05   -0.60987E-07   288   0.392E-03
   2 F= -.12952547E+03 E0= -.12952547E+03  d E =-.211493E-03
damped:  g(F)=  0.000E+00 g(S)=  0.000E+00 dE (1.order)= 0.000E+00
 bond charge predicted
       N       E                     dE             d eps       ncg     rms          rms(c)
DAV:   1    -0.129525429780E+03    0.38539E-04   -0.41621E-02   355   0.104E+00    0.490E-02
DAV:   2    -0.129525478556E+03   -0.48776E-04   -0.77515E-04   456   0.130E-01    0.319E-02
DAV:   3    -0.129525473599E+03    0.49579E-05   -0.24337E-05   238   0.293E-02    0.171E-02
DAV:   4    -0.129525479231E+03   -0.56323E-05   -0.26441E-05   275   0.243E-02    0.421E-03
DAV:   5    -0.129525480242E+03   -0.10112E-05   -0.50762E-06   272   0.126E-02    0.197E-03
DAV:   6    -0.129525481217E+03   -0.97512E-06   -0.79783E-07   204   0.450E-03
   3 F= -.12952548E+03 E0= -.12952548E+03  d E =-.111156E-04
damped:  g(F)=  0.000E+00 g(S)=  0.000E+00 dE (1.order)= 0.000E+00
 bond charge predicted
       N       E                     dE             d eps       ncg     rms          rms(c)
DAV:   1    -0.129525601993E+03   -0.12175E-03   -0.71746E-02   331   0.137E+00    0.667E-02
DAV:   2    -0.129525693703E+03   -0.91710E-04   -0.14218E-03   395   0.176E-01    0.451E-02
DAV:   3    -0.129525683612E+03    0.10091E-04   -0.52205E-05   318   0.418E-02    0.257E-02
DAV:   4    -0.129525691947E+03   -0.83347E-05   -0.45184E-05   265   0.335E-02    0.494E-03
DAV:   5    -0.129525692265E+03   -0.31826E-06   -0.80752E-06   272   0.151E-02    0.273E-03
DAV:   6    -0.129525692594E+03   -0.32888E-06   -0.12244E-06   234   0.570E-03
   4 F= -.12952569E+03 E0= -.12952569E+03  d E =-.211377E-03
damped:  g(F)=  0.000E+00 g(S)=  0.000E+00 dE (1.order)= 0.000E+00
 bond charge predicted
       N       E                     dE             d eps       ncg     rms          rms(c)
DAV:   1    -0.129525666467E+03    0.25798E-04   -0.88905E-02   334   0.150E+00    0.728E-02
DAV:   2    -0.129525751497E+03   -0.85030E-04   -0.14548E-03   394   0.180E-01    0.482E-02
DAV:   3    -0.129525743237E+03    0.82600E-05   -0.57165E-05   269   0.443E-02    0.263E-02
DAV:   4    -0.129525754411E+03   -0.11174E-04   -0.46713E-05   248   0.331E-02    0.534E-03
DAV:   5    -0.129525754740E+03   -0.32882E-06   -0.87596E-06   264   0.159E-02    0.274E-03
DAV:   6    -0.129525755453E+03   -0.71313E-06   -0.14237E-06   240   0.604E-03
   5 F= -.12952576E+03 E0= -.12952576E+03  d E =-.628591E-04
damped:  g(F)=  0.000E+00 g(S)=  0.000E+00 dE (1.order)= 0.000E+00
 bond charge predicted
       N       E                     dE             d eps       ncg     rms          rms(c)
DAV:   1    -0.129525869830E+03   -0.11509E-03   -0.94077E-02   328   0.156E+00    0.755E-02
DAV:   2    -0.129525982201E+03   -0.11237E-03   -0.17460E-03   361   0.195E-01    0.495E-02
DAV:   3    -0.129525973129E+03    0.90719E-05   -0.62559E-05   300   0.463E-02    0.262E-02
DAV:   4    -0.129525981791E+03   -0.86621E-05   -0.46815E-05   265   0.338E-02    0.474E-03
DAV:   5    -0.129525982192E+03   -0.40126E-06   -0.82732E-06   272   0.156E-02    0.274E-03
DAV:   6    -0.129525982531E+03   -0.33847E-06   -0.14216E-06   250   0.613E-03
   6 F= -.12952598E+03 E0= -.12952598E+03  d E =-.227077E-03
damped:  g(F)=  0.000E+00 g(S)=  0.000E+00 dE (1.order)= 0.000E+00
 bond charge predicted
       N       E                     dE             d eps       ncg     rms          rms(c)
DAV:   1    -0.129526003425E+03   -0.21233E-04   -0.24501E-04   336   0.792E-02    0.423E-03
DAV:   2    -0.129526004948E+03   -0.15234E-05   -0.10407E-05   218   0.161E-02    0.254E-03
DAV:   3    -0.129526005647E+03   -0.69917E-06   -0.10991E-06   246   0.539E-03    0.146E-03
DAV:   4    -0.129526006632E+03   -0.98451E-06   -0.35637E-07   257   0.272E-03    0.465E-04
DAV:   5    -0.129526007185E+03   -0.55342E-06   -0.71515E-08   248   0.133E-03    0.234E-04
DAV:   6    -0.129526007643E+03   -0.45812E-06   -0.18917E-08   232   0.630E-04
   7 F= -.12952601E+03 E0= -.12952601E+03  d E =-.251128E-04
damped:  g(F)=  0.000E+00 g(S)=  0.000E+00 dE (1.order)= 0.000E+00
 bond charge predicted
       N       E                     dE             d eps       ncg     rms          rms(c)
DAV:   1    -0.129526034044E+03   -0.26858E-04   -0.77462E-04   365   0.141E-01    0.792E-03
DAV:   2    -0.129526036118E+03   -0.20742E-05   -0.23998E-05   218   0.221E-02    0.437E-03
DAV:   3    -0.129526036434E+03   -0.31653E-06   -0.26694E-06   252   0.792E-03    0.223E-03
DAV:   4    -0.129526036756E+03   -0.32106E-06   -0.66147E-07   236   0.401E-03    0.738E-04
DAV:   5    -0.129526036947E+03   -0.19097E-06   -0.21488E-07   334   0.212E-03    0.295E-04
DAV:   6    -0.129526037052E+03   -0.10584E-06    0.59384E-09   270   0.987E-04
   8 F= -.12952604E+03 E0= -.12952604E+03  d E =-.294089E-04
damped:  g(F)=  0.000E+00 g(S)=  0.000E+00 dE (1.order)= 0.000E+00
 bond charge predicted
       N       E                     dE             d eps       ncg     rms          rms(c)
DAV:   1    -0.129526057599E+03   -0.20652E-04   -0.11211E-03   346   0.172E-01    0.858E-03
DAV:   2    -0.129526059638E+03   -0.20393E-05   -0.30349E-05   236   0.252E-02    0.489E-03
DAV:   3    -0.129526059615E+03    0.23104E-07   -0.33345E-06   272   0.897E-03    0.254E-03
DAV:   4    -0.129526059563E+03    0.51960E-07   -0.84786E-07   200   0.454E-03    0.825E-04
DAV:   5    -0.129526059540E+03    0.23391E-07   -0.22129E-07   264   0.235E-03    0.288E-04
DAV:   6    -0.129526059592E+03   -0.52060E-07   -0.53470E-08   200   0.116E-03
   9 F= -.12952606E+03 E0= -.12952606E+03  d E =-.225393E-04
damped:  g(F)=  0.000E+00 g(S)=  0.000E+00 dE (1.order)= 0.000E+00
 bond charge predicted
       N       E                     dE             d eps       ncg     rms          rms(c)
DAV:   1    -0.129526080844E+03   -0.21305E-04   -0.11307E-03   291   0.175E-01    0.735E-03
DAV:   2    -0.129526082842E+03   -0.19973E-05   -0.27736E-05   202   0.260E-02    0.436E-03
DAV:   3    -0.129526083027E+03   -0.18568E-06   -0.30654E-06   164   0.925E-03    0.247E-03
DAV:   4    -0.129526083150E+03   -0.12278E-06   -0.76990E-07   227   0.466E-03    0.721E-04
DAV:   5    -0.129526083209E+03   -0.59250E-07   -0.18124E-07   199   0.231E-03    0.302E-04
DAV:   6    -0.129526083284E+03   -0.74697E-07   -0.34299E-08   165   0.112E-03
  10 F= -.12952608E+03 E0= -.12952608E+03  d E =-.236924E-04
damped:  g(F)=  0.000E+00 g(S)=  0.000E+00 dE (1.order)= 0.000E+00
 bond charge predicted
       N       E                     dE             d eps       ncg     rms          rms(c)
DAV:   1    -0.129526115827E+03   -0.32617E-04   -0.11803E-03   337   0.181E-01    0.728E-03
DAV:   2    -0.129526117432E+03   -0.16053E-05   -0.22318E-05   236   0.231E-02    0.458E-03
DAV:   3    -0.129526117644E+03   -0.21190E-06   -0.23571E-06   164   0.795E-03    0.260E-03
DAV:   4    -0.129526117931E+03   -0.28739E-06   -0.64756E-07   238   0.431E-03    0.711E-04
DAV:   5    -0.129526118010E+03   -0.78536E-07   -0.15029E-07   218   0.221E-03    0.307E-04
DAV:   6    -0.129526118058E+03   -0.47949E-07   -0.13184E-09   164   0.990E-04
  11 F= -.12952612E+03 E0= -.12952612E+03  d E =-.347737E-04
damped:  g(F)=  0.000E+00 g(S)=  0.000E+00 dE (1.order)= 0.000E+00
 bond charge predicted
       N       E                     dE             d eps       ncg     rms          rms(c)
DAV:   1    -0.129526156982E+03   -0.38972E-04   -0.14435E-03   359   0.202E-01    0.844E-03
DAV:   2    -0.129526159241E+03   -0.22587E-05   -0.32181E-05   243   0.275E-02    0.562E-03
DAV:   3    -0.129526159362E+03   -0.12080E-06   -0.34160E-06   222   0.944E-03    0.339E-03
DAV:   4    -0.129526159519E+03   -0.15758E-06   -0.10363E-06   259   0.549E-03    0.939E-04
DAV:   5    -0.129526159526E+03   -0.73442E-08   -0.24739E-07   221   0.282E-03    0.397E-04
DAV:   6    -0.129526159559E+03   -0.32102E-07   -0.23157E-08   164   0.129E-03
  12 F= -.12952616E+03 E0= -.12952616E+03  d E =-.415008E-04
damped:  g(F)=  0.000E+00 g(S)=  0.000E+00 dE (1.order)= 0.000E+00
 bond charge predicted
       N       E                     dE             d eps       ncg     rms          rms(c)
DAV:   1    -0.129526199117E+03   -0.39591E-04   -0.20088E-03   325   0.238E-01    0.100E-02
DAV:   2    -0.129526202300E+03   -0.31830E-05   -0.47208E-05   236   0.331E-02    0.674E-03
DAV:   3    -0.129526202363E+03   -0.62428E-07   -0.50581E-06   270   0.114E-02    0.403E-03
DAV:   4    -0.129526202407E+03   -0.44453E-07   -0.15176E-06   225   0.657E-03    0.112E-03
DAV:   5    -0.129526202391E+03    0.15828E-07   -0.39887E-07   246   0.335E-03    0.470E-04
DAV:   6    -0.129526202446E+03   -0.55246E-07   -0.83203E-08   166   0.159E-03
  13 F= -.12952620E+03 E0= -.12952620E+03  d E =-.428879E-04
damped:  g(F)=  0.000E+00 g(S)=  0.000E+00 dE (1.order)= 0.000E+00
 bond charge predicted
       N       E                     dE             d eps       ncg     rms          rms(c)
DAV:   1    -0.129526246849E+03   -0.44458E-04   -0.23444E-03   327   0.256E-01    0.103E-02
DAV:   2    -0.129526250118E+03   -0.32682E-05   -0.47482E-05   200   0.335E-02    0.673E-03
DAV:   3    -0.129526250411E+03   -0.29334E-06   -0.50611E-06   184   0.117E-02    0.376E-03
DAV:   4    -0.129526250727E+03   -0.31655E-06   -0.13757E-06   208   0.632E-03    0.959E-04
DAV:   5    -0.129526250797E+03   -0.69928E-07   -0.36937E-07   164   0.320E-03    0.426E-04
DAV:   6    -0.129526250874E+03   -0.76984E-07   -0.78618E-08   164   0.152E-03
  14 F= -.12952625E+03 E0= -.12952625E+03  d E =-.484278E-04
damped:  g(F)=  0.000E+00 g(S)=  0.000E+00 dE (1.order)= 0.000E+00
 bond charge predicted
       N       E                     dE             d eps       ncg     rms          rms(c)
DAV:   1    -0.129526313855E+03   -0.63057E-04   -0.31499E-03   329   0.294E-01    0.122E-02
DAV:   2    -0.129526317663E+03   -0.38079E-05   -0.56583E-05   236   0.371E-02    0.770E-03
DAV:   3    -0.129526318250E+03   -0.58746E-06   -0.62631E-06   244   0.131E-02    0.377E-03
DAV:   4    -0.129526318693E+03   -0.44237E-06   -0.15607E-06   254   0.654E-03    0.898E-04
DAV:   5    -0.129526318790E+03   -0.97059E-07   -0.37513E-07   219   0.321E-03    0.391E-04
DAV:   6    -0.129526318851E+03   -0.61401E-07   -0.72994E-08   165   0.155E-03
  15 F= -.12952632E+03 E0= -.12952632E+03  d E =-.679767E-04
damped:  g(F)=  0.000E+00 g(S)=  0.000E+00 dE (1.order)= 0.000E+00
 bond charge predicted
       N       E                     dE             d eps       ncg     rms          rms(c)
DAV:   1    -0.129526395829E+03   -0.77039E-04   -0.55013E-03   354   0.385E-01    0.174E-02
DAV:   2    -0.129526402200E+03   -0.63710E-05   -0.10352E-04   284   0.493E-02    0.111E-02
DAV:   3    -0.129526402455E+03   -0.25535E-06   -0.90057E-06   285   0.146E-02    0.591E-03
DAV:   4    -0.129526402828E+03   -0.37287E-06   -0.25809E-06   252   0.869E-03    0.131E-03
DAV:   5    -0.129526402891E+03   -0.62691E-07   -0.55789E-07   246   0.401E-03    0.653E-04
DAV:   6    -0.129526402961E+03   -0.70147E-07   -0.84588E-08   182   0.168E-03
  16 F= -.12952640E+03 E0= -.12952640E+03  d E =-.841100E-04
damped:  g(F)=  0.000E+00 g(S)=  0.000E+00 dE (1.order)= 0.000E+00
 bond charge predicted
       N       E                     dE             d eps       ncg     rms          rms(c)
DAV:   1    -0.129526491040E+03   -0.88149E-04   -0.97043E-03   330   0.505E-01    0.235E-02
DAV:   2    -0.129526499585E+03   -0.85448E-05   -0.15491E-04   268   0.619E-02    0.147E-02
DAV:   3    -0.129526500861E+03   -0.12769E-05   -0.17522E-05   250   0.197E-02    0.753E-03
DAV:   4    -0.129526501923E+03   -0.10614E-05   -0.44851E-06   270   0.114E-02    0.177E-03
DAV:   5    -0.129526502071E+03   -0.14803E-06   -0.10313E-06   201   0.546E-03    0.806E-04
DAV:   6    -0.129526502209E+03   -0.13773E-06   -0.19785E-07   174   0.227E-03
  17 F= -.12952650E+03 E0= -.12952650E+03  d E =-.992476E-04
damped:  g(F)=  0.000E+00 g(S)=  0.000E+00 dE (1.order)= 0.000E+00
 bond charge predicted
       N       E                     dE             d eps       ncg     rms          rms(c)
DAV:   1    -0.129526609783E+03   -0.10771E-03   -0.17078E-02   329   0.667E-01    0.311E-02
DAV:   2    -0.129526627400E+03   -0.17617E-04   -0.29550E-04   356   0.810E-02    0.207E-02
DAV:   3    -0.129526626247E+03    0.11522E-05   -0.11291E-05   236   0.201E-02    0.114E-02
DAV:   4    -0.129526629195E+03   -0.29471E-05   -0.11193E-05   276   0.162E-02    0.336E-03
DAV:   5    -0.129526629170E+03    0.25091E-07   -0.25822E-06   264   0.905E-03    0.129E-03
DAV:   6    -0.129526629318E+03   -0.14890E-06   -0.33841E-07   210   0.307E-03
  18 F= -.12952663E+03 E0= -.12952663E+03  d E =-.127110E-03
damped:  g(F)=  0.000E+00 g(S)=  0.000E+00 dE (1.order)= 0.000E+00
 bond charge predicted
       N       E                     dE             d eps       ncg     rms          rms(c)
DAV:   1    -0.129526740648E+03   -0.11148E-03   -0.27148E-02   335   0.841E-01    0.392E-02
DAV:   2    -0.129526769511E+03   -0.28862E-04   -0.47516E-04   396   0.102E-01    0.262E-02
DAV:   3    -0.129526767017E+03    0.24940E-05   -0.17518E-05   202   0.249E-02    0.143E-02
DAV:   4    -0.129526771160E+03   -0.41434E-05   -0.15831E-05   244   0.197E-02    0.350E-03
DAV:   5    -0.129526771221E+03   -0.60408E-07   -0.31728E-06   247   0.100E-02    0.165E-03
DAV:   6    -0.129526771441E+03   -0.22020E-06   -0.61158E-07   252   0.411E-03
  19 F= -.12952677E+03 E0= -.12952677E+03  d E =-.142122E-03
damped:  g(F)=  0.000E+00 g(S)=  0.000E+00 dE (1.order)= 0.000E+00
 bond charge predicted
       N       E                     dE             d eps       ncg     rms          rms(c)
DAV:   1    -0.129526903526E+03   -0.13230E-03   -0.37138E-02   332   0.990E-01    0.447E-02
DAV:   2    -0.129526946806E+03   -0.43281E-04   -0.66947E-04   369   0.121E-01    0.302E-02
DAV:   3    -0.129526943572E+03    0.32340E-05   -0.21851E-05   236   0.279E-02    0.166E-02
DAV:   4    -0.129526948660E+03   -0.50876E-05   -0.19980E-05   259   0.221E-02    0.394E-03
DAV:   5    -0.129526948691E+03   -0.30957E-07   -0.40322E-06   264   0.112E-02    0.172E-03
DAV:   6    -0.129526948925E+03   -0.23422E-06   -0.62176E-07   200   0.402E-03
  20 F= -.12952695E+03 E0= -.12952695E+03  d E =-.177484E-03
damped:  g(F)=  0.000E+00 g(S)=  0.000E+00 dE (1.order)= 0.000E+00
 bond charge predicted
       N       E                     dE             d eps       ncg     rms          rms(c)
DAV:   1    -0.129527109597E+03   -0.16091E-03   -0.43892E-02   330   0.108E+00    0.468E-02
DAV:   2    -0.129527165201E+03   -0.55604E-04   -0.81843E-04   387   0.132E-01    0.316E-02
DAV:   3    -0.129527162112E+03    0.30892E-05   -0.22560E-05   201   0.288E-02    0.173E-02
DAV:   4    -0.129527168304E+03   -0.61926E-05   -0.21602E-05   268   0.233E-02    0.428E-03
DAV:   5    -0.129527168425E+03   -0.12037E-06   -0.46869E-06   236   0.121E-02    0.177E-03
DAV:   6    -0.129527168725E+03   -0.30054E-06   -0.66616E-07   192   0.412E-03
  21 F= -.12952717E+03 E0= -.12952717E+03  d E =-.219800E-03
damped:  g(F)=  0.000E+00 g(S)=  0.000E+00 dE (1.order)= 0.000E+00
 bond charge predicted
       N       E                     dE             d eps       ncg     rms          rms(c)
DAV:   1    -0.129527175104E+03   -0.66792E-05   -0.94859E-05   244   0.517E-02    0.209E-03
DAV:   2    -0.129527175910E+03   -0.80652E-06   -0.57047E-06   200   0.136E-02    0.121E-03
DAV:   3    -0.129527176231E+03   -0.32092E-06   -0.67561E-07   164   0.399E-03    0.943E-04
DAV:   4    -0.129527176660E+03   -0.42871E-06   -0.18867E-07   294   0.211E-03    0.350E-04
DAV:   5    -0.129527176965E+03   -0.30480E-06   -0.16487E-08   200   0.964E-04    0.186E-04
DAV:   6    -0.129527177231E+03   -0.26577E-06    0.13960E-08   228   0.516E-04
  22 F= -.12952718E+03 E0= -.12952718E+03  d E =-.850538E-05
damped:  g(F)=  0.000E+00 g(S)=  0.000E+00 dE (1.order)= 0.000E+00
 bond charge predicted
       N       E                     dE             d eps       ncg     rms          rms(c)
DAV:   1    -0.129527189276E+03   -0.12311E-04   -0.37672E-04   305   0.100E-01    0.403E-03
DAV:   2    -0.129527190017E+03   -0.74059E-06   -0.80503E-06   206   0.144E-02    0.253E-03
DAV:   3    -0.129527190226E+03   -0.20945E-06   -0.82311E-07   215   0.504E-03    0.143E-03
DAV:   4    -0.129527190494E+03   -0.26842E-06   -0.17861E-07   222   0.256E-03    0.356E-04
DAV:   5    -0.129527190645E+03   -0.15080E-06   -0.13005E-08   232   0.130E-03    0.180E-04
DAV:   6    -0.129527190737E+03   -0.91266E-07    0.32972E-08   174   0.604E-04
  23 F= -.12952719E+03 E0= -.12952719E+03  d E =-.135059E-04
damped:  g(F)=  0.000E+00 g(S)=  0.000E+00 dE (1.order)= 0.000E+00
 bond charge predicted
       N       E                     dE             d eps       ncg     rms          rms(c)
DAV:   1    -0.129527207260E+03   -0.16614E-04   -0.78683E-04   356   0.145E-01    0.582E-03
DAV:   2    -0.129527208577E+03   -0.13170E-05   -0.16871E-05   202   0.207E-02    0.363E-03
DAV:   3    -0.129527208780E+03   -0.20384E-06   -0.17254E-06   164   0.723E-03    0.202E-03
DAV:   4    -0.129527208946E+03   -0.16600E-06   -0.39243E-07   228   0.365E-03    0.485E-04
DAV:   5    -0.129527208996E+03   -0.49125E-07   -0.64539E-08   172   0.183E-03    0.248E-04
DAV:   6    -0.129527209024E+03   -0.28678E-07    0.25726E-08   198   0.849E-04
  24 F= -.12952721E+03 E0= -.12952721E+03  d E =-.182877E-04
damped:  g(F)=  0.000E+00 g(S)=  0.000E+00 dE (1.order)= 0.000E+00
 bond charge predicted
       N       E                     dE             d eps       ncg     rms          rms(c)
DAV:   1    -0.129527230621E+03   -0.21626E-04   -0.12780E-03   316   0.184E-01    0.731E-03
DAV:   2    -0.129527232310E+03   -0.16889E-05   -0.23547E-05   212   0.231E-02    0.465E-03
DAV:   3    -0.129527232485E+03   -0.17448E-06   -0.22425E-06   165   0.778E-03    0.248E-03
DAV:   4    -0.129527232655E+03   -0.17039E-06   -0.55084E-07   164   0.407E-03    0.544E-04
DAV:   5    -0.129527232681E+03   -0.25975E-07   -0.10951E-07   164   0.197E-03    0.260E-04
DAV:   6    -0.129527232701E+03   -0.19917E-07    0.13347E-08   164   0.902E-04
  25 F= -.12952723E+03 E0= -.12952723E+03  d E =-.236769E-04
damped:  g(F)=  0.000E+00 g(S)=  0.000E+00 dE (1.order)= 0.000E+00
 bond charge predicted
       N       E                     dE             d eps       ncg     rms          rms(c)
DAV:   1    -0.129527259806E+03   -0.27125E-04   -0.17648E-03   292   0.216E-01    0.851E-03
DAV:   2    -0.129527262204E+03   -0.23984E-05   -0.33296E-05   200   0.273E-02    0.539E-03
DAV:   3    -0.129527262426E+03   -0.22249E-06   -0.31193E-06   164   0.909E-03    0.288E-03
DAV:   4    -0.129527262644E+03   -0.21756E-06   -0.76514E-07   200   0.476E-03    0.616E-04
DAV:   5    -0.129527262680E+03   -0.35579E-07   -0.17469E-07   164   0.228E-03    0.302E-04
DAV:   6    -0.129527262705E+03   -0.25673E-07   -0.79020E-09   164   0.105E-03
  26 F= -.12952726E+03 E0= -.12952726E+03  d E =-.300043E-04
damped:  g(F)=  0.000E+00 g(S)=  0.000E+00 dE (1.order)= 0.000E+00
 bond charge predicted
       N       E                     dE             d eps       ncg     rms          rms(c)
DAV:   1    -0.129527295960E+03   -0.33280E-04   -0.21352E-03   292   0.237E-01    0.923E-03
DAV:   2    -0.129527298967E+03   -0.30072E-05   -0.41432E-05   202   0.302E-02    0.586E-03
DAV:   3    -0.129527299225E+03   -0.25842E-06   -0.38216E-06   165   0.100E-02    0.315E-03
DAV:   4    -0.129527299483E+03   -0.25748E-06   -0.92687E-07   199   0.523E-03    0.668E-04
DAV:   5    -0.129527299532E+03   -0.49617E-07   -0.22759E-07   164   0.251E-03    0.335E-04
DAV:   6    -0.129527299567E+03   -0.34277E-07   -0.25707E-08   164   0.118E-03
  27 F= -.12952730E+03 E0= -.12952730E+03  d E =-.368614E-04
damped:  g(F)=  0.000E+00 g(S)=  0.000E+00 dE (1.order)= 0.000E+00
 bond charge predicted
       N       E                     dE             d eps       ncg     rms          rms(c)
DAV:   1    -0.129527342838E+03   -0.43306E-04   -0.28323E-03   292   0.273E-01    0.105E-02
DAV:   2    -0.129527347109E+03   -0.42706E-05   -0.57897E-05   232   0.350E-02    0.673E-03
DAV:   3    -0.129527347279E+03   -0.17083E-06   -0.35670E-06   188   0.920E-03    0.377E-03
DAV:   4    -0.129527347627E+03   -0.34792E-06   -0.12473E-06   232   0.594E-03    0.748E-04
DAV:   5    -0.129527347691E+03   -0.63672E-07   -0.33278E-07   164   0.287E-03    0.433E-04
DAV:   6    -0.129527347733E+03   -0.42213E-07   -0.53212E-08   164   0.128E-03
  28 F= -.12952735E+03 E0= -.12952735E+03  d E =-.481665E-04
damped:  g(F)=  0.000E+00 g(S)=  0.000E+00 dE (1.order)= 0.000E+00
 bond charge predicted
       N       E                     dE             d eps       ncg     rms          rms(c)
DAV:   1    -0.129527402242E+03   -0.54551E-04   -0.37061E-03   324   0.312E-01    0.121E-02
DAV:   2    -0.129527407763E+03   -0.55204E-05   -0.75665E-05   232   0.401E-02    0.773E-03
DAV:   3    -0.129527408016E+03   -0.25320E-06   -0.48186E-06   200   0.106E-02    0.431E-03
DAV:   4    -0.129527408491E+03   -0.47517E-06   -0.16588E-06   243   0.678E-03    0.875E-04
DAV:   5    -0.129527408578E+03   -0.87458E-07   -0.45529E-07   164   0.331E-03    0.478E-04
DAV:   6    -0.129527408632E+03   -0.53802E-07   -0.90779E-08   164   0.148E-03
  29 F= -.12952741E+03 E0= -.12952741E+03  d E =-.608990E-04
damped:  g(F)=  0.000E+00 g(S)=  0.000E+00 dE (1.order)= 0.000E+00
 bond charge predicted
       N       E                     dE             d eps       ncg     rms          rms(c)
DAV:   1    -0.129527475776E+03   -0.67197E-04   -0.53937E-03   324   0.377E-01    0.151E-02
DAV:   2    -0.129527483140E+03   -0.73648E-05   -0.10523E-04   259   0.481E-02    0.958E-03
DAV:   3    -0.129527483616E+03   -0.47536E-06   -0.74144E-06   200   0.132E-02    0.524E-03
DAV:   4    -0.129527484346E+03   -0.73045E-06   -0.25288E-06   270   0.822E-03    0.110E-03
DAV:   5    -0.129527484467E+03   -0.12116E-06   -0.69749E-07   199   0.407E-03    0.563E-04
DAV:   6    -0.129527484535E+03   -0.67726E-07   -0.16018E-07   164   0.179E-03
  30 F= -.12952748E+03 E0= -.12952748E+03  d E =-.759028E-04
damped:  g(F)=  0.000E+00 g(S)=  0.000E+00 dE (1.order)= 0.000E+00
 bond charge predicted
       N       E                     dE             d eps       ncg     rms          rms(c)
DAV:   1    -0.129527564625E+03   -0.80157E-04   -0.92091E-03   324   0.493E-01    0.207E-02
DAV:   2    -0.129527575406E+03   -0.10781E-04   -0.16496E-04   268   0.616E-02    0.130E-02
DAV:   3    -0.129527576485E+03   -0.10799E-05   -0.13741E-05   217   0.177E-02    0.693E-03
DAV:   4    -0.129527577696E+03   -0.12104E-05   -0.43001E-06   270   0.108E-02    0.153E-03
DAV:   5    -0.129527577862E+03   -0.16661E-06   -0.11564E-06   201   0.532E-03    0.734E-04
DAV:   6    -0.129527577960E+03   -0.97368E-07   -0.27351E-07   164   0.228E-03
  31 F= -.12952758E+03 E0= -.12952758E+03  d E =-.934247E-04
damped:  g(F)=  0.000E+00 g(S)=  0.000E+00 dE (1.order)= 0.000E+00
 bond charge predicted
       N       E                     dE             d eps       ncg     rms          rms(c)
DAV:   1    -0.129527669054E+03   -0.91192E-04   -0.17158E-02   328   0.670E-01    0.292E-02
DAV:   2    -0.129527689334E+03   -0.20279E-04   -0.30978E-04   364   0.817E-02    0.195E-02
DAV:   3    -0.129527688464E+03    0.86917E-06   -0.90435E-06   201   0.182E-02    0.109E-02
DAV:   4    -0.129527690983E+03   -0.25185E-05   -0.89718E-06   237   0.154E-02    0.256E-03
DAV:   5    -0.129527691053E+03   -0.70068E-07   -0.19869E-06   236   0.774E-03    0.127E-03
DAV:   6    -0.129527691175E+03   -0.12220E-06   -0.31350E-07   165   0.282E-03
  32 F= -.12952769E+03 E0= -.12952769E+03  d E =-.113215E-03
damped:  g(F)=  0.000E+00 g(S)=  0.000E+00 dE (1.order)= 0.000E+00
 bond charge predicted
       N       E                     dE             d eps       ncg     rms          rms(c)
DAV:   1    -0.129527790316E+03   -0.99263E-04   -0.31089E-02   328   0.897E-01    0.399E-02
DAV:   2    -0.129527824894E+03   -0.34578E-04   -0.53367E-04   396   0.108E-01    0.264E-02
DAV:   3    -0.129527823258E+03    0.16359E-05   -0.16133E-05   200   0.242E-02    0.144E-02
DAV:   4    -0.129527827644E+03   -0.43853E-05   -0.15398E-05   244   0.194E-02    0.323E-03
DAV:   5    -0.129527827754E+03   -0.10978E-06   -0.31033E-06   237   0.968E-03    0.158E-03
DAV:   6    -0.129527827942E+03   -0.18825E-06   -0.50600E-07   200   0.369E-03
  33 F= -.12952783E+03 E0= -.12952783E+03  d E =-.136767E-03
damped:  g(F)=  0.000E+00 g(S)=  0.000E+00 dE (1.order)= 0.000E+00
 bond charge predicted
       N       E                     dE             d eps       ncg     rms          rms(c)
DAV:   1    -0.129527937609E+03   -0.10986E-03   -0.50029E-02   328   0.114E+00    0.506E-02
DAV:   2    -0.129527992234E+03   -0.54625E-04   -0.83977E-04   396   0.135E-01    0.335E-02
DAV:   3    -0.129527989978E+03    0.22564E-05   -0.25384E-05   216   0.303E-02    0.180E-02
DAV:   4    -0.129527996768E+03   -0.67902E-05   -0.25254E-05   268   0.240E-02    0.439E-03
DAV:   5    -0.129527996767E+03    0.10841E-08   -0.50386E-06   236   0.124E-02    0.185E-03
DAV:   6    -0.129527997014E+03   -0.24676E-06   -0.72531E-07   216   0.433E-03
  34 F= -.12952800E+03 E0= -.12952800E+03  d E =-.169072E-03
damped:  g(F)=  0.000E+00 g(S)=  0.000E+00 dE (1.order)= 0.000E+00
 bond charge predicted
       N       E                     dE             d eps       ncg     rms          rms(c)
DAV:   1    -0.129528128980E+03   -0.13221E-03   -0.68590E-02   332   0.134E+00    0.583E-02
DAV:   2    -0.129528210682E+03   -0.81702E-04   -0.12080E-03   395   0.161E-01    0.389E-02
DAV:   3    -0.129528207105E+03    0.35770E-05   -0.32989E-05   200   0.348E-02    0.209E-02
DAV:   4    -0.129528215888E+03   -0.87827E-05   -0.33200E-05   268   0.280E-02    0.490E-03
DAV:   5    -0.129528216014E+03   -0.12686E-06   -0.66062E-06   226   0.142E-02    0.216E-03
DAV:   6    -0.129528216346E+03   -0.33128E-06   -0.90978E-07   209   0.485E-03
  35 F= -.12952822E+03 E0= -.12952822E+03  d E =-.219332E-03
damped:  g(F)=  0.000E+00 g(S)=  0.000E+00 dE (1.order)= 0.000E+00
 bond charge predicted
       N       E                     dE             d eps       ncg     rms          rms(c)
DAV:   1    -0.129528222367E+03   -0.63530E-05   -0.83813E-05   242   0.485E-02    0.200E-03
DAV:   2    -0.129528223154E+03   -0.78611E-06   -0.51974E-06   200   0.129E-02    0.115E-03
DAV:   3    -0.129528223481E+03   -0.32787E-06   -0.61896E-07   164   0.382E-03    0.889E-04
DAV:   4    -0.129528223918E+03   -0.43662E-06   -0.17596E-07   301   0.201E-03    0.332E-04
DAV:   5    -0.129528224240E+03   -0.32174E-06   -0.13878E-08   200   0.933E-04    0.171E-04
DAV:   6    -0.129528224516E+03   -0.27588E-06    0.12303E-08   229   0.502E-04
  36 F= -.12952822E+03 E0= -.12952822E+03  d E =-.816993E-05
damped:  g(F)=  0.000E+00 g(S)=  0.000E+00 dE (1.order)= 0.000E+00
 bond charge predicted
       N       E                     dE             d eps       ncg     rms          rms(c)
DAV:   1    -0.129528236329E+03   -0.12090E-04   -0.33642E-04   330   0.947E-02    0.380E-03
DAV:   2    -0.129528237043E+03   -0.71360E-06   -0.74854E-06   226   0.137E-02    0.241E-03
DAV:   3    -0.129528237257E+03   -0.21373E-06   -0.75817E-07   174   0.477E-03    0.136E-03
DAV:   4    -0.129528237537E+03   -0.28002E-06   -0.16349E-07   244   0.244E-03    0.310E-04
DAV:   5    -0.129528237683E+03   -0.14609E-06   -0.20799E-08   235   0.123E-03    0.172E-04
DAV:   6    -0.129528237784E+03   -0.10120E-06    0.21521E-08   221   0.586E-04
  37 F= -.12952824E+03 E0= -.12952824E+03  d E =-.132683E-04
damped:  g(F)=  0.000E+00 g(S)=  0.000E+00 dE (1.order)= 0.000E+00
 bond charge predicted
       N       E                     dE             d eps       ncg     rms          rms(c)
DAV:   1    -0.129528254492E+03   -0.16809E-04   -0.72790E-04   317   0.139E-01    0.552E-03
DAV:   2    -0.129528255738E+03   -0.12454E-05   -0.15775E-05   234   0.199E-02    0.349E-03
DAV:   3    -0.129528255937E+03   -0.19907E-06   -0.15988E-06   188   0.690E-03    0.192E-03
DAV:   4    -0.129528256103E+03   -0.16624E-06   -0.36184E-07   220   0.349E-03    0.420E-04
DAV:   5    -0.129528256152E+03   -0.49241E-07   -0.67452E-08   189   0.174E-03    0.231E-04
DAV:   6    -0.129528256181E+03   -0.29056E-07    0.16618E-08   198   0.820E-04
  38 F= -.12952826E+03 E0= -.12952826E+03  d E =-.183973E-04
damped:  g(F)=  0.000E+00 g(S)=  0.000E+00 dE (1.order)= 0.000E+00
 bond charge predicted
       N       E                     dE             d eps       ncg     rms          rms(c)
DAV:   1    -0.129528278543E+03   -0.22391E-04   -0.12401E-03   327   0.181E-01    0.710E-03
DAV:   2    -0.129528280189E+03   -0.16461E-05   -0.22776E-05   202   0.227E-02    0.457E-03
DAV:   3    -0.129528280358E+03   -0.16842E-06   -0.21571E-06   165   0.759E-03    0.240E-03
DAV:   4    -0.129528280519E+03   -0.16125E-06   -0.53060E-07   172   0.394E-03    0.489E-04
DAV:   5    -0.129528280546E+03   -0.27387E-07   -0.11008E-07   164   0.189E-03    0.240E-04
DAV:   6    -0.129528280564E+03   -0.18246E-07    0.56048E-09   164   0.886E-04
  39 F= -.12952828E+03 E0= -.12952828E+03  d E =-.243832E-04
damped:  g(F)=  0.000E+00 g(S)=  0.000E+00 dE (1.order)= 0.000E+00
 bond charge predicted
       N       E                     dE             d eps       ncg     rms          rms(c)
DAV:   1    -0.129528308479E+03   -0.27932E-04   -0.18372E-03   292   0.220E-01    0.856E-03
DAV:   2    -0.129528310910E+03   -0.24319E-05   -0.33783E-05   204   0.276E-02    0.551E-03
DAV:   3    -0.129528311132E+03   -0.22130E-06   -0.31918E-06   166   0.920E-03    0.287E-03
DAV:   4    -0.129528311345E+03   -0.21341E-06   -0.80031E-07   206   0.476E-03    0.583E-04
DAV:   5    -0.129528311385E+03   -0.39665E-07   -0.18283E-07   164   0.228E-03    0.278E-04
DAV:   6    -0.129528311413E+03   -0.28601E-07   -0.16080E-08   164   0.107E-03
  40 F= -.12952831E+03 E0= -.12952831E+03  d E =-.308490E-04
damped:  g(F)=  0.000E+00 g(S)=  0.000E+00 dE (1.order)= 0.000E+00
 bond charge predicted
       N       E                     dE             d eps       ncg     rms          rms(c)
DAV:   1    -0.129528345197E+03   -0.33812E-04   -0.24771E-03   292   0.256E-01    0.988E-03
DAV:   2    -0.129528348494E+03   -0.32966E-05   -0.45885E-05   200   0.321E-02    0.637E-03
DAV:   3    -0.129528348774E+03   -0.28051E-06   -0.43240E-06   189   0.107E-02    0.332E-03
DAV:   4    -0.129528349061E+03   -0.28679E-06   -0.10885E-06   176   0.551E-03    0.678E-04
DAV:   5    -0.129528349120E+03   -0.59214E-07   -0.26237E-07   164   0.265E-03    0.319E-04
DAV:   6    -0.129528349161E+03   -0.40444E-07   -0.38622E-08   164   0.125E-03
  41 F= -.12952835E+03 E0= -.12952835E+03  d E =-.377473E-04
damped:  g(F)=  0.000E+00 g(S)=  0.000E+00 dE (1.order)= 0.000E+00
 bond charge predicted
       N       E                     dE             d eps       ncg     rms          rms(c)
DAV:   1    -0.129528392752E+03   -0.43632E-04   -0.38584E-03   324   0.319E-01    0.123E-02
DAV:   2    -0.129528398216E+03   -0.54638E-05   -0.74796E-05   233   0.403E-02    0.799E-03
DAV:   3    -0.129528398425E+03   -0.20908E-06   -0.47805E-06   198   0.106E-02    0.437E-03
DAV:   4    -0.129528398888E+03   -0.46328E-06   -0.17311E-06   235   0.679E-03    0.819E-04
DAV:   5    -0.129528398975E+03   -0.86439E-07   -0.45312E-07   164   0.327E-03    0.439E-04
DAV:   6    -0.129528399025E+03   -0.49868E-07   -0.85997E-08   164   0.143E-03
  42 F= -.12952840E+03 E0= -.12952840E+03  d E =-.498639E-04
damped:  g(F)=  0.000E+00 g(S)=  0.000E+00 dE (1.order)= 0.000E+00
 bond charge predicted
       N       E                     dE             d eps       ncg     rms          rms(c)
DAV:   1    -0.129528454192E+03   -0.55218E-04   -0.57933E-03   324   0.391E-01    0.151E-02
DAV:   2    -0.129528462611E+03   -0.84192E-05   -0.11458E-04   252   0.496E-02    0.976E-03
DAV:   3    -0.129528462934E+03   -0.32248E-06   -0.72871E-06   200   0.131E-02    0.537E-03
DAV:   4    -0.129528463623E+03   -0.68871E-06   -0.26097E-06   253   0.833E-03    0.102E-03
DAV:   5    -0.129528463749E+03   -0.12651E-06   -0.72132E-07   197   0.404E-03    0.553E-04
DAV:   6    -0.129528463822E+03   -0.72493E-07   -0.16598E-07   164   0.178E-03
  43 F= -.12952846E+03 E0= -.12952846E+03  d E =-.647971E-04
damped:  g(F)=  0.000E+00 g(S)=  0.000E+00 dE (1.order)= 0.000E+00
 bond charge predicted
       N       E                     dE             d eps       ncg     rms          rms(c)
DAV:   1    -0.129528532246E+03   -0.68497E-04   -0.84505E-03   324   0.473E-01    0.182E-02
DAV:   2    -0.129528544763E+03   -0.12517E-04   -0.16906E-04   260   0.602E-02    0.117E-02
DAV:   3    -0.129528545257E+03   -0.49371E-06   -0.10755E-05   208   0.158E-02    0.646E-03
DAV:   4    -0.129528546256E+03   -0.99910E-06   -0.38043E-06   264   0.100E-02    0.124E-03
DAV:   5    -0.129528546440E+03   -0.18379E-06   -0.10839E-06   200   0.488E-03    0.676E-04
DAV:   6    -0.129528546544E+03   -0.10498E-06   -0.27747E-07   164   0.217E-03
  44 F= -.12952855E+03 E0= -.12952855E+03  d E =-.827229E-04
damped:  g(F)=  0.000E+00 g(S)=  0.000E+00 dE (1.order)= 0.000E+00
 bond charge predicted
       N       E                     dE             d eps       ncg     rms          rms(c)
DAV:   1    -0.129528629083E+03   -0.82644E-04   -0.12230E-02   328   0.569E-01    0.219E-02
DAV:   2    -0.129528648865E+03   -0.19782E-04   -0.26047E-04   308   0.725E-02    0.146E-02
DAV:   3    -0.129528648355E+03    0.51010E-06   -0.67167E-06   219   0.147E-02    0.830E-03
DAV:   4    -0.129528649668E+03   -0.13131E-05   -0.44441E-06   247   0.120E-02    0.148E-03
DAV:   5    -0.129528649851E+03   -0.18265E-06   -0.11341E-06   201   0.550E-03    0.875E-04
DAV:   6    -0.129528649974E+03   -0.12321E-06   -0.17422E-07   164   0.205E-03
  45 F= -.12952865E+03 E0= -.12952865E+03  d E =-.103430E-03
damped:  g(F)=  0.000E+00 g(S)=  0.000E+00 dE (1.order)= 0.000E+00
 bond charge predicted
       N       E                     dE             d eps       ncg     rms          rms(c)
DAV:   1    -0.129528748063E+03   -0.98212E-04   -0.17689E-02   328   0.684E-01    0.266E-02
DAV:   2    -0.129528776457E+03   -0.28394E-04   -0.37551E-04   324   0.873E-02    0.177E-02
DAV:   3    -0.129528775793E+03    0.66329E-06   -0.10132E-05   208   0.181E-02    0.101E-02
DAV:   4    -0.129528777752E+03   -0.19588E-05   -0.65663E-06   236   0.145E-02    0.184E-03
DAV:   5    -0.129528777999E+03   -0.24729E-06   -0.16674E-06   201   0.669E-03    0.106E-03
DAV:   6    -0.129528778166E+03   -0.16647E-06   -0.27630E-07   164   0.249E-03
  46 F= -.12952878E+03 E0= -.12952878E+03  d E =-.128192E-03
damped:  g(F)=  0.000E+00 g(S)=  0.000E+00 dE (1.order)= 0.000E+00
 bond charge predicted
       N       E                     dE             d eps       ncg     rms          rms(c)
DAV:   1    -0.129528893192E+03   -0.11519E-03   -0.26219E-02   328   0.833E-01    0.327E-02
DAV:   2    -0.129528935483E+03   -0.42291E-04   -0.55998E-04   387   0.106E-01    0.221E-02
DAV:   3    -0.129528933516E+03    0.19665E-05   -0.94473E-06   200   0.189E-02    0.127E-02
DAV:   4    -0.129528936535E+03   -0.30189E-05   -0.97203E-06   236   0.174E-02    0.238E-03
DAV:   5    -0.129528936845E+03   -0.31001E-06   -0.23504E-06   211   0.812E-03    0.131E-03
DAV:   6    -0.129528937061E+03   -0.21609E-06   -0.31764E-07   164   0.277E-03
  47 F= -.12952894E+03 E0= -.12952894E+03  d E =-.158895E-03
damped:  g(F)=  0.000E+00 g(S)=  0.000E+00 dE (1.order)= 0.000E+00
 bond charge predicted
       N       E                     dE             d eps       ncg     rms          rms(c)
DAV:   1    -0.129529069171E+03   -0.13233E-03   -0.39463E-02   328   0.102E+00    0.405E-02
DAV:   2    -0.129529131850E+03   -0.62679E-04   -0.83379E-04   394   0.130E-01    0.274E-02
DAV:   3    -0.129529128888E+03    0.29626E-05   -0.14442E-05   208   0.234E-02    0.156E-02
DAV:   4    -0.129529133572E+03   -0.46845E-05   -0.15633E-05   268   0.211E-02    0.322E-03
DAV:   5    -0.129529133932E+03   -0.35953E-06   -0.34316E-06   236   0.101E-02    0.158E-03
DAV:   6    -0.129529134188E+03   -0.25635E-06   -0.40493E-07   164   0.329E-03
  48 F= -.12952913E+03 E0= -.12952913E+03  d E =-.197127E-03
damped:  g(F)=  0.000E+00 g(S)=  0.000E+00 dE (1.order)= 0.000E+00
 bond charge predicted
       N       E                     dE             d eps       ncg     rms          rms(c)
DAV:   1    -0.129529275101E+03   -0.14117E-03   -0.59960E-02   328   0.126E+00    0.502E-02
DAV:   2    -0.129529369517E+03   -0.94416E-04   -0.12584E-03   395   0.160E-01    0.340E-02
DAV:   3    -0.129529364983E+03    0.45345E-05   -0.22285E-05   208   0.291E-02    0.193E-02
DAV:   4    -0.129529372113E+03   -0.71304E-05   -0.24222E-05   268   0.263E-02    0.404E-03
DAV:   5    -0.129529372604E+03   -0.49031E-06   -0.53566E-06   236   0.126E-02    0.196E-03
DAV:   6    -0.129529372965E+03   -0.36123E-06   -0.65631E-07   164   0.412E-03
  49 F= -.12952937E+03 E0= -.12952937E+03  d E =-.238777E-03
damped:  g(F)=  0.000E+00 g(S)=  0.000E+00 dE (1.order)= 0.000E+00
 bond charge predicted
       N       E                     dE             d eps       ncg     rms          rms(c)
DAV:   1    -0.129529513845E+03   -0.14124E-03   -0.89841E-02   328   0.154E+00    0.615E-02
DAV:   2    -0.129529655772E+03   -0.14193E-03   -0.18880E-03   386   0.195E-01    0.417E-02
DAV:   3    -0.129529649001E+03    0.67710E-05   -0.33458E-05   208   0.356E-02    0.236E-02
DAV:   4    -0.129529659638E+03   -0.10637E-04   -0.36138E-05   268   0.320E-02    0.496E-03
DAV:   5    -0.129529660325E+03   -0.68785E-06   -0.79520E-06   235   0.154E-02    0.240E-03
DAV:   6    -0.129529660819E+03   -0.49366E-06   -0.99163E-07   167   0.503E-03
  50 F= -.12952966E+03 E0= -.12952966E+03  d E =-.287854E-03
damped:  g(F)=  0.000E+00 g(S)=  0.000E+00 dE (1.order)= 0.000E+00
 bond charge predicted
       N       E                     dE             d eps       ncg     rms          rms(c)
DAV:   1    -0.129529782975E+03   -0.12265E-03   -0.13402E-01   328   0.189E+00    0.749E-02
DAV:   2    -0.129529997514E+03   -0.21454E-03   -0.28377E-03   379   0.240E-01    0.504E-02
DAV:   3    -0.129529987434E+03    0.10080E-04   -0.51039E-05   232   0.431E-02    0.284E-02
DAV:   4    -0.129530002141E+03   -0.14707E-04   -0.45497E-05   268   0.372E-02    0.508E-03
DAV:   5    -0.129530003408E+03   -0.12672E-05   -0.97359E-06   237   0.166E-02    0.297E-03
DAV:   6    -0.129530004241E+03   -0.83297E-06   -0.11851E-06   216   0.564E-03
  51 F= -.12953000E+03 E0= -.12953000E+03  d E =-.343422E-03
damped:  g(F)=  0.000E+00 g(S)=  0.000E+00 dE (1.order)= 0.000E+00
 bond charge predicted
       N       E                     dE             d eps       ncg     rms          rms(c)
DAV:   1    -0.129530055123E+03   -0.51715E-04   -0.19053E-01   328   0.225E+00    0.894E-02
DAV:   2    -0.129530365888E+03   -0.31077E-03   -0.41124E-03   387   0.288E-01    0.617E-02
DAV:   3    -0.129530348653E+03    0.17235E-04   -0.78690E-05   300   0.526E-02    0.355E-02
DAV:   4    -0.129530368970E+03   -0.20317E-04   -0.65707E-05   292   0.449E-02    0.609E-03
DAV:   5    -0.129530370726E+03   -0.17551E-05   -0.13505E-05   264   0.192E-02    0.373E-03
DAV:   6    -0.129530371842E+03   -0.11165E-05   -0.16582E-06   202   0.670E-03
  52 F= -.12953037E+03 E0= -.12953037E+03  d E =-.367601E-03
damped:  g(F)=  0.000E+00 g(S)=  0.000E+00 dE (1.order)= 0.000E+00
 bond charge predicted
       N       E                     dE             d eps       ncg     rms          rms(c)
DAV:   1    -0.129529450410E+03    0.92032E-03   -0.33897E-01   328   0.305E+00    0.132E-01
DAV:   2    -0.129530154605E+03   -0.70420E-03   -0.93845E-03   347   0.439E-01    0.867E-02
DAV:   3    -0.129530102773E+03    0.51832E-04   -0.20898E-04   343   0.793E-02    0.521E-02
DAV:   4    -0.129530104789E+03   -0.20158E-05   -0.17056E-04   291   0.739E-02    0.858E-03
DAV:   5    -0.129530109927E+03   -0.51379E-05   -0.36091E-05   336   0.311E-02    0.624E-03
DAV:   6    -0.129530112696E+03   -0.27689E-05   -0.42048E-06   298   0.109E-02
  53 F= -.12953011E+03 E0= -.12953011E+03  d E =0.259146E-03
damped:  g(F)=  0.000E+00 g(S)=  0.000E+00 dE (1.order)= 0.000E+00
 bond charge predicted
       N       E                     dE             d eps       ncg     rms          rms(c)
DAV:   1    -0.129530565833E+03   -0.45591E-03   -0.83860E-02   360   0.155E+00    0.981E-02
DAV:   2    -0.129530849700E+03   -0.28387E-03   -0.39001E-03   386   0.287E-01    0.570E-02
DAV:   3    -0.129530810736E+03    0.38965E-04   -0.94296E-05   349   0.561E-02    0.328E-02
DAV:   4    -0.129530793713E+03    0.17022E-04   -0.81116E-05   284   0.483E-02    0.689E-03
DAV:   5    -0.129530793803E+03   -0.89468E-07   -0.17143E-05   336   0.209E-02    0.364E-03
DAV:   6    -0.129530794071E+03   -0.26816E-06   -0.24263E-06   268   0.813E-03
  54 F= -.12953079E+03 E0= -.12953079E+03  d E =-.681375E-03
damped:  g(F)=  0.000E+00 g(S)=  0.000E+00 dE (1.order)= 0.000E+00
 bond charge predicted
       N       E                     dE             d eps       ncg     rms          rms(c)
DAV:   1    -0.129530840540E+03   -0.46737E-04   -0.58869E-04   428   0.128E-01    0.849E-03
DAV:   2    -0.129530843189E+03   -0.26483E-05   -0.21235E-05   272   0.226E-02    0.445E-03
DAV:   3    -0.129530844537E+03   -0.13484E-05   -0.22432E-06   284   0.760E-03    0.224E-03
DAV:   4    -0.129530846250E+03   -0.17132E-05   -0.35697E-07   210   0.332E-03    0.692E-04
DAV:   5    -0.129530847545E+03   -0.12944E-05   -0.12790E-07   296   0.165E-03    0.256E-04
DAV:   6    -0.129530848415E+03   -0.87022E-06   -0.16728E-08   216   0.838E-04
  55 F= -.12953085E+03 E0= -.12953085E+03  d E =-.543439E-04
damped:  g(F)=  0.000E+00 g(S)=  0.000E+00 dE (1.order)= 0.000E+00
 bond charge predicted
       N       E                     dE             d eps       ncg     rms          rms(c)
DAV:   1    -0.129530885010E+03   -0.37466E-04   -0.16785E-03   366   0.218E-01    0.138E-02
DAV:   2    -0.129530890259E+03   -0.52487E-05   -0.70108E-05   259   0.398E-02    0.756E-03
DAV:   3    -0.129530890514E+03   -0.25464E-06   -0.65709E-06   326   0.112E-02    0.431E-03
DAV:   4    -0.129530890893E+03   -0.37873E-06   -0.15279E-06   243   0.660E-03    0.985E-04
DAV:   5    -0.129530891233E+03   -0.34032E-06   -0.29206E-07   272   0.286E-03    0.488E-04
DAV:   6    -0.129530891484E+03   -0.25079E-06   -0.21666E-08   232   0.132E-03
  56 F= -.12953089E+03 E0= -.12953089E+03  d E =-.430688E-04
damped:  g(F)=  0.000E+00 g(S)=  0.000E+00 dE (1.order)= 0.000E+00
 bond charge predicted
       N       E                     dE             d eps       ncg     rms          rms(c)
DAV:   1    -0.129530881917E+03    0.93158E-05   -0.18045E-03   368   0.226E-01    0.140E-02
DAV:   2    -0.129530886574E+03   -0.46570E-05   -0.74546E-05   267   0.410E-02    0.777E-03
DAV:   3    -0.129530885910E+03    0.66449E-06   -0.55937E-06   264   0.115E-02    0.445E-03
DAV:   4    -0.129530885261E+03    0.64872E-06   -0.29468E-06   272   0.793E-03    0.125E-03
DAV:   5    -0.129530885230E+03    0.31337E-07   -0.50644E-07   272   0.395E-03    0.660E-04
DAV:   6    -0.129530885276E+03   -0.46815E-07   -0.60732E-08   200   0.169E-03
  57 F= -.12953089E+03 E0= -.12953089E+03  d E =0.620730E-05
damped:  g(F)=  0.000E+00 g(S)=  0.000E+00 dE (1.order)= 0.000E+00
 bond charge predicted
       N       E                     dE             d eps       ncg     rms          rms(c)
DAV:   1    -0.129530888745E+03   -0.35151E-05   -0.75523E-06   263   0.149E-02    0.848E-04
DAV:   2    -0.129530888962E+03   -0.21736E-06   -0.51404E-07   200   0.411E-03    0.562E-04
DAV:   3    -0.129530889132E+03   -0.16949E-06   -0.19696E-08   231   0.128E-03    0.379E-04
DAV:   4    -0.129530889448E+03   -0.31609E-06    0.27703E-08   240   0.735E-04    0.105E-04
DAV:   5    -0.129530889626E+03   -0.17793E-06    0.43404E-08   232   0.377E-04    0.603E-05
DAV:   6    -0.129530889834E+03   -0.20895E-06    0.49955E-08   239   0.254E-04
  58 F= -.12953089E+03 E0= -.12953089E+03  d E =-.455813E-05
damped:  g(F)=  0.000E+00 g(S)=  0.000E+00 dE (1.order)= 0.000E+00
 bond charge predicted
       N       E                     dE             d eps       ncg     rms          rms(c)
DAV:   1    -0.129530895708E+03   -0.60820E-05   -0.27909E-05   234   0.286E-02    0.152E-03
DAV:   2    -0.129530896007E+03   -0.29916E-06   -0.20650E-06   237   0.791E-03    0.981E-04
DAV:   3    -0.129530896101E+03   -0.94180E-07   -0.20656E-07   226   0.243E-03    0.707E-04
DAV:   4    -0.129530896220E+03   -0.11923E-06   -0.22565E-08   246   0.140E-03    0.223E-04
DAV:   5    -0.129530896275E+03   -0.54718E-07    0.32245E-08   226   0.688E-04    0.126E-04
DAV:   6    -0.129530896313E+03   -0.38217E-07    0.49587E-08   165   0.415E-04
  59 F= -.12953090E+03 E0= -.12953090E+03  d E =-.647859E-05
damped:  g(F)=  0.000E+00 g(S)=  0.000E+00 dE (1.order)= 0.000E+00
 bond charge predicted
       N       E                     dE             d eps       ncg     rms          rms(c)
DAV:   1    -0.129530902951E+03   -0.66763E-05   -0.54221E-05   187   0.399E-02    0.211E-03
DAV:   2    -0.129530903333E+03   -0.38149E-06   -0.40775E-06   203   0.110E-02    0.137E-03
DAV:   3    -0.129530903372E+03   -0.39757E-07   -0.46882E-07   181   0.342E-03    0.999E-04
DAV:   4    -0.129530903373E+03   -0.70304E-09   -0.10612E-07   225   0.198E-03    0.323E-04
DAV:   5    -0.129530903377E+03   -0.34156E-08    0.14338E-09   164   0.971E-04    0.183E-04
DAV:   6    -0.129530903381E+03   -0.49404E-08    0.34840E-08   164   0.586E-04
  60 F= -.12953090E+03 E0= -.12953090E+03  d E =-.706840E-05
damped:  g(F)=  0.000E+00 g(S)=  0.000E+00 dE (1.order)= 0.000E+00
 bond charge predicted
       N       E                     dE             d eps       ncg     rms          rms(c)
DAV:   1    -0.129530909423E+03   -0.60465E-05   -0.77375E-05   164   0.478E-02    0.250E-03
DAV:   2    -0.129530909937E+03   -0.51441E-06   -0.58299E-06   208   0.132E-02    0.163E-03
DAV:   3    -0.129530909975E+03   -0.37146E-07   -0.71102E-07   165   0.412E-03    0.121E-03
DAV:   4    -0.129530909943E+03    0.31726E-07   -0.18670E-07   232   0.240E-03    0.397E-04
DAV:   5    -0.129530909935E+03    0.76589E-08   -0.30822E-08   167   0.118E-03    0.224E-04
DAV:   6    -0.129530909939E+03   -0.42237E-08    0.18079E-08   165   0.709E-04
  61 F= -.12953091E+03 E0= -.12953091E+03  d E =-.655797E-05
damped:  g(F)=  0.000E+00 g(S)=  0.000E+00 dE (1.order)= 0.000E+00
 bond charge predicted
       N       E                     dE             d eps       ncg     rms          rms(c)
DAV:   1    -0.129530914556E+03   -0.46207E-05   -0.90667E-05   164   0.518E-02    0.264E-03
DAV:   2    -0.129530915141E+03   -0.58551E-06   -0.67377E-06   165   0.142E-02    0.173E-03
DAV:   3    -0.129530915188E+03   -0.46627E-07   -0.85157E-07   164   0.448E-03    0.131E-03
DAV:   4    -0.129530915160E+03    0.28092E-07   -0.22819E-07   185   0.262E-03    0.442E-04
DAV:   5    -0.129530915157E+03    0.31787E-08   -0.46662E-08   164   0.129E-03    0.245E-04
DAV:   6    -0.129530915167E+03   -0.10241E-07    0.10450E-08   164   0.765E-04
  62 F= -.12953092E+03 E0= -.12953092E+03  d E =-.522758E-05
damped:  g(F)=  0.000E+00 g(S)=  0.000E+00 dE (1.order)= 0.000E+00
 bond charge predicted
       N       E                     dE             d eps       ncg     rms          rms(c)
DAV:   1    -0.129530918485E+03   -0.33284E-05   -0.96410E-05   164   0.532E-02    0.260E-03
DAV:   2    -0.129530919086E+03   -0.60073E-06   -0.68874E-06   164   0.143E-02    0.171E-03
DAV:   3    -0.129530919145E+03   -0.59195E-07   -0.89471E-07   164   0.460E-03    0.132E-03
DAV:   4    -0.129530919134E+03    0.11233E-07   -0.22764E-07   164   0.266E-03    0.460E-04
DAV:   5    -0.129530919139E+03   -0.53697E-08   -0.45272E-08   164   0.131E-03    0.241E-04
DAV:   6    -0.129530919155E+03   -0.15878E-07    0.11657E-08   164   0.756E-04
  63 F= -.12953092E+03 E0= -.12953092E+03  d E =-.398807E-05
damped:  g(F)=  0.000E+00 g(S)=  0.000E+00 dE (1.order)= 0.000E+00
 bond charge predicted
       N       E                     dE             d eps       ncg     rms          rms(c)
DAV:   1    -0.129530922474E+03   -0.33350E-05   -0.13260E-04   196   0.611E-02    0.280E-03
DAV:   2    -0.129530923094E+03   -0.62004E-06   -0.71335E-06   164   0.137E-02    0.186E-03
DAV:   3    -0.129530923166E+03   -0.71699E-07   -0.96472E-07   164   0.460E-03    0.138E-03
DAV:   4    -0.129530923178E+03   -0.11515E-07   -0.26019E-07   164   0.288E-03    0.388E-04
DAV:   5    -0.129530923189E+03   -0.11220E-07   -0.44126E-08   164   0.132E-03    0.231E-04
DAV:   6    -0.129530923206E+03   -0.17661E-07    0.12221E-08   164   0.745E-04
  64 F= -.12953092E+03 E0= -.12953092E+03  d E =-.405130E-05
damped:  g(F)=  0.000E+00 g(S)=  0.000E+00 dE (1.order)= 0.000E+00
 bond charge predicted
       N       E                     dE             d eps       ncg     rms          rms(c)
DAV:   1    -0.129530928622E+03   -0.54335E-05   -0.21965E-04   260   0.755E-02    0.351E-03
DAV:   2    -0.129530928898E+03   -0.27534E-06   -0.42609E-06   164   0.109E-02    0.220E-03
DAV:   3    -0.129530928957E+03   -0.59778E-07   -0.51994E-07   164   0.407E-03    0.116E-03
DAV:   4    -0.129530928996E+03   -0.38855E-07   -0.11301E-07   164   0.210E-03    0.292E-04
DAV:   5    -0.129530929013E+03   -0.17076E-07    0.11895E-09   164   0.109E-03    0.149E-04
DAV:   6    -0.129530929028E+03   -0.14999E-07    0.31951E-08   164   0.512E-04
  65 F= -.12953093E+03 E0= -.12953093E+03  d E =-.582186E-05
damped:  g(F)=  0.000E+00 g(S)=  0.000E+00 dE (1.order)= 0.000E+00
 bond charge predicted
       N       E                     dE             d eps       ncg     rms          rms(c)
DAV:   1    -0.129530938027E+03   -0.90133E-05   -0.40697E-04   280   0.102E-01    0.468E-03
DAV:   2    -0.129530938436E+03   -0.40997E-06   -0.68704E-06   164   0.139E-02    0.282E-03
DAV:   3    -0.129530938562E+03   -0.12572E-06   -0.84883E-07   198   0.522E-03    0.135E-03
DAV:   4    -0.129530938626E+03   -0.63495E-07   -0.18608E-07   183   0.253E-03    0.308E-04
DAV:   5    -0.129530938644E+03   -0.18444E-07   -0.11100E-08   164   0.130E-03    0.165E-04
DAV:   6    -0.129530938652E+03   -0.80900E-08    0.34310E-08   164   0.606E-04
  66 F= -.12953094E+03 E0= -.12953094E+03  d E =-.962397E-05
damped:  g(F)=  0.000E+00 g(S)=  0.000E+00 dE (1.order)= 0.000E+00
 bond charge predicted
       N       E                     dE             d eps       ncg     rms          rms(c)
DAV:   1    -0.129530952311E+03   -0.13667E-04   -0.77023E-04   292   0.141E-01    0.646E-03
DAV:   2    -0.129530952864E+03   -0.55249E-06   -0.10975E-05   165   0.168E-02    0.388E-03
DAV:   3    -0.129530953017E+03   -0.15318E-06   -0.13677E-06   228   0.627E-03    0.179E-03
DAV:   4    -0.129530953114E+03   -0.96694E-07   -0.32685E-07   165   0.309E-03    0.398E-04
DAV:   5    -0.129530953140E+03   -0.26148E-07   -0.35909E-08   164   0.150E-03    0.184E-04
DAV:   6    -0.129530953150E+03   -0.10280E-07    0.31727E-08   164   0.714E-04
  67 F= -.12953095E+03 E0= -.12953095E+03  d E =-.144980E-04
damped:  g(F)=  0.000E+00 g(S)=  0.000E+00 dE (1.order)= 0.000E+00
 bond charge predicted
       N       E                     dE             d eps       ncg     rms          rms(c)
DAV:   1    -0.129530969589E+03   -0.16449E-04   -0.13284E-03   292   0.186E-01    0.854E-03
DAV:   2    -0.129530970725E+03   -0.11352E-05   -0.21012E-05   201   0.231E-02    0.511E-03
DAV:   3    -0.129530970949E+03   -0.22492E-06   -0.26017E-06   213   0.852E-03    0.240E-03
DAV:   4    -0.129530971080E+03   -0.13077E-06   -0.65306E-07   241   0.423E-03    0.533E-04
DAV:   5    -0.129530971113E+03   -0.32311E-07   -0.11485E-07   167   0.205E-03    0.244E-04
DAV:   6    -0.129530971128E+03   -0.15375E-07    0.89800E-09   164   0.994E-04
  68 F= -.12953097E+03 E0= -.12953097E+03  d E =-.179777E-04
damped:  g(F)=  0.000E+00 g(S)=  0.000E+00 dE (1.order)= 0.000E+00
 bond charge predicted
       N       E                     dE             d eps       ncg     rms          rms(c)
DAV:   1    -0.129530988100E+03   -0.16988E-04   -0.19759E-03   292   0.227E-01    0.104E-02
DAV:   2    -0.129530989829E+03   -0.17287E-05   -0.31754E-05   200   0.283E-02    0.623E-03
DAV:   3    -0.129530990126E+03   -0.29757E-06   -0.39532E-06   214   0.104E-02    0.293E-03
DAV:   4    -0.129530990294E+03   -0.16807E-06   -0.10173E-06   244   0.518E-03    0.649E-04
DAV:   5    -0.129530990343E+03   -0.48139E-07   -0.21067E-07   165   0.251E-03    0.297E-04
DAV:   6    -0.129530990378E+03   -0.35153E-07   -0.24015E-08   164   0.123E-03
  69 F= -.12953099E+03 E0= -.12953099E+03  d E =-.192499E-04
damped:  g(F)=  0.000E+00 g(S)=  0.000E+00 dE (1.order)= 0.000E+00
 bond charge predicted
       N       E                     dE             d eps       ncg     rms          rms(c)
DAV:   1    -0.129531010608E+03   -0.20265E-04   -0.26156E-03   324   0.259E-01    0.118E-02
DAV:   2    -0.129531012602E+03   -0.19943E-05   -0.37411E-05   201   0.309E-02    0.711E-03
DAV:   3    -0.129531013089E+03   -0.48671E-06   -0.47802E-06   200   0.115E-02    0.327E-03
DAV:   4    -0.129531013389E+03   -0.30048E-06   -0.12488E-06   222   0.564E-03    0.722E-04
DAV:   5    -0.129531013469E+03   -0.79571E-07   -0.26955E-07   164   0.275E-03    0.339E-04
DAV:   6    -0.129531013518E+03   -0.49445E-07   -0.41482E-08   164   0.132E-03
  70 F= -.12953101E+03 E0= -.12953101E+03  d E =-.231407E-04
damped:  g(F)=  0.000E+00 g(S)=  0.000E+00 dE (1.order)= 0.000E+00
 bond charge predicted
       N       E                     dE             d eps       ncg     rms          rms(c)
DAV:   1    -0.129531043850E+03   -0.30381E-04   -0.33234E-03   325   0.291E-01    0.134E-02
DAV:   2    -0.129531046211E+03   -0.23613E-05   -0.44390E-05   237   0.339E-02    0.816E-03
DAV:   3    -0.129531046913E+03   -0.70141E-06   -0.58129E-06   200   0.127E-02    0.376E-03
DAV:   4    -0.129531047336E+03   -0.42372E-06   -0.15522E-06   209   0.626E-03    0.889E-04
DAV:   5    -0.129531047416E+03   -0.80073E-07   -0.34833E-07   164   0.313E-03    0.396E-04
DAV:   6    -0.129531047460E+03   -0.43732E-07   -0.61176E-08   164   0.146E-03
  71 F= -.12953105E+03 E0= -.12953105E+03  d E =-.339416E-04
damped:  g(F)=  0.000E+00 g(S)=  0.000E+00 dE (1.order)= 0.000E+00
 bond charge predicted
       N       E                     dE             d eps       ncg     rms          rms(c)
DAV:   1    -0.129531085419E+03   -0.38002E-04   -0.43782E-03   324   0.336E-01    0.156E-02
DAV:   2    -0.129531088901E+03   -0.34826E-05   -0.64130E-05   237   0.407E-02    0.969E-03
DAV:   3    -0.129531089669E+03   -0.76716E-06   -0.83110E-06   255   0.151E-02    0.472E-03
DAV:   4    -0.129531090143E+03   -0.47484E-06   -0.22949E-06   248   0.770E-03    0.119E-03
DAV:   5    -0.129531090208E+03   -0.64972E-07   -0.55648E-07   175   0.389E-03    0.504E-04
DAV:   6    -0.129531090258E+03   -0.50060E-07   -0.13140E-07   164   0.181E-03
  72 F= -.12953109E+03 E0= -.12953109E+03  d E =-.427983E-04
damped:  g(F)=  0.000E+00 g(S)=  0.000E+00 dE (1.order)= 0.000E+00
 bond charge predicted
       N       E                     dE             d eps       ncg     rms          rms(c)
DAV:   1    -0.129531134866E+03   -0.44658E-04   -0.53885E-03   326   0.373E-01    0.169E-02
DAV:   2    -0.129531139173E+03   -0.43064E-05   -0.77568E-05   245   0.444E-02    0.104E-02
DAV:   3    -0.129531140187E+03   -0.10139E-05   -0.97992E-06   210   0.163E-02    0.492E-03
DAV:   4    -0.129531140813E+03   -0.62610E-06   -0.26519E-06   250   0.816E-03    0.120E-03
DAV:   5    -0.129531140916E+03   -0.10332E-06   -0.65733E-07   181   0.411E-03    0.526E-04
DAV:   6    -0.129531140989E+03   -0.72881E-07   -0.16968E-07   172   0.195E-03
  73 F= -.12953114E+03 E0= -.12953114E+03  d E =-.507307E-04
damped:  g(F)=  0.000E+00 g(S)=  0.000E+00 dE (1.order)= 0.000E+00
 bond charge predicted
       N       E                     dE             d eps       ncg     rms          rms(c)
DAV:   1    -0.129531198482E+03   -0.57566E-04   -0.65539E-03   326   0.414E-01    0.182E-02
DAV:   2    -0.129531205115E+03   -0.66330E-05   -0.10641E-04   269   0.504E-02    0.111E-02
DAV:   3    -0.129531206104E+03   -0.98908E-06   -0.95847E-06   253   0.150E-02    0.546E-03
DAV:   4    -0.129531206921E+03   -0.81647E-06   -0.31696E-06   272   0.865E-03    0.116E-03
DAV:   5    -0.129531207050E+03   -0.12926E-06   -0.82460E-07   202   0.438E-03    0.564E-04
DAV:   6    -0.129531207118E+03   -0.68105E-07   -0.20815E-07   167   0.199E-03
  74 F= -.12953121E+03 E0= -.12953121E+03  d E =-.661291E-04
damped:  g(F)=  0.000E+00 g(S)=  0.000E+00 dE (1.order)= 0.000E+00
 bond charge predicted
       N       E                     dE             d eps       ncg     rms          rms(c)
DAV:   1    -0.129531269693E+03   -0.62643E-04   -0.79394E-03   325   0.458E-01    0.198E-02
DAV:   2    -0.129531279193E+03   -0.95007E-05   -0.14417E-04   268   0.576E-02    0.121E-02
DAV:   3    -0.129531280170E+03   -0.97645E-06   -0.11961E-05   238   0.165E-02    0.618E-03
DAV:   4    -0.129531281070E+03   -0.90044E-06   -0.39665E-06   254   0.982E-03    0.128E-03
DAV:   5    -0.129531281213E+03   -0.14292E-06   -0.10663E-06   204   0.492E-03    0.639E-04
DAV:   6    -0.129531281294E+03   -0.81133E-07   -0.29157E-07   189   0.229E-03
  75 F= -.12953128E+03 E0= -.12953128E+03  d E =-.741762E-04
damped:  g(F)=  0.000E+00 g(S)=  0.000E+00 dE (1.order)= 0.000E+00
 bond charge predicted
       N       E                     dE             d eps       ncg     rms          rms(c)
DAV:   1    -0.129531355828E+03   -0.74615E-04   -0.92693E-03   342   0.496E-01    0.208E-02
DAV:   2    -0.129531367377E+03   -0.11549E-04   -0.16867E-04   268   0.618E-02    0.129E-02
DAV:   3    -0.129531368550E+03   -0.11727E-05   -0.13180E-05   234   0.173E-02    0.665E-03
DAV:   4    -0.129531369759E+03   -0.12091E-05   -0.43991E-06   270   0.104E-02    0.140E-03
DAV:   5    -0.129531369944E+03   -0.18517E-06   -0.11994E-06   200   0.517E-03    0.684E-04
DAV:   6    -0.129531370046E+03   -0.10207E-06   -0.32343E-07   164   0.237E-03
  76 F= -.12953137E+03 E0= -.12953137E+03  d E =-.887515E-04
damped:  g(F)=  0.000E+00 g(S)=  0.000E+00 dE (1.order)= 0.000E+00
 bond charge predicted
       N       E                     dE             d eps       ncg     rms          rms(c)
DAV:   1    -0.129531450979E+03   -0.81036E-04   -0.12601E-02   324   0.580E-01    0.238E-02
DAV:   2    -0.129531469781E+03   -0.18802E-04   -0.25957E-04   332   0.736E-02    0.158E-02
DAV:   3    -0.129531469383E+03    0.39827E-06   -0.79435E-06   236   0.160E-02    0.890E-03
DAV:   4    -0.129531470779E+03   -0.13954E-05   -0.50257E-06   236   0.124E-02    0.168E-03
DAV:   5    -0.129531470901E+03   -0.12230E-06   -0.11852E-06   222   0.573E-03    0.937E-04
DAV:   6    -0.129531471008E+03   -0.10753E-06   -0.19871E-07   166   0.221E-03
  77 F= -.12953147E+03 E0= -.12953147E+03  d E =-.100963E-03
damped:  g(F)=  0.000E+00 g(S)=  0.000E+00 dE (1.order)= 0.000E+00
 bond charge predicted
       N       E                     dE             d eps       ncg     rms          rms(c)
DAV:   1    -0.129531558105E+03   -0.87204E-04   -0.18156E-02   328   0.695E-01    0.281E-02
DAV:   2    -0.129531585165E+03   -0.27060E-04   -0.36952E-04   332   0.874E-02    0.184E-02
DAV:   3    -0.129531584776E+03    0.38869E-06   -0.10706E-05   220   0.186E-02    0.102E-02
DAV:   4    -0.129531586905E+03   -0.21282E-05   -0.66225E-06   244   0.143E-02    0.185E-03
DAV:   5    -0.129531587114E+03   -0.20948E-06   -0.16467E-06   227   0.668E-03    0.106E-03
DAV:   6    -0.129531587273E+03   -0.15877E-06   -0.29002E-07   165   0.256E-03
  78 F= -.12953159E+03 E0= -.12953159E+03  d E =-.116265E-03
damped:  g(F)=  0.000E+00 g(S)=  0.000E+00 dE (1.order)= 0.000E+00
 bond charge predicted
       N       E                     dE             d eps       ncg     rms          rms(c)
DAV:   1    -0.129531673813E+03   -0.86699E-04   -0.27920E-02   328   0.863E-01    0.350E-02
DAV:   2    -0.129531717329E+03   -0.43516E-04   -0.58863E-04   364   0.109E-01    0.230E-02
DAV:   3    -0.129531715528E+03    0.18015E-05   -0.10330E-05   235   0.195E-02    0.130E-02
DAV:   4    -0.129531718625E+03   -0.30968E-05   -0.11253E-05   269   0.181E-02    0.248E-03
DAV:   5    -0.129531718889E+03   -0.26448E-06   -0.24464E-06   247   0.839E-03    0.141E-03
DAV:   6    -0.129531719082E+03   -0.19299E-06   -0.27335E-07   183   0.274E-03
  79 F= -.12953172E+03 E0= -.12953172E+03  d E =-.131809E-03
damped:  g(F)=  0.000E+00 g(S)=  0.000E+00 dE (1.order)= 0.000E+00
 bond charge predicted
       N       E                     dE             d eps       ncg     rms          rms(c)
DAV:   1    -0.129531813431E+03   -0.94541E-04   -0.40183E-02   329   0.104E+00    0.415E-02
DAV:   2    -0.129531875356E+03   -0.61926E-04   -0.82976E-04   377   0.130E-01    0.280E-02
DAV:   3    -0.129531872067E+03    0.32895E-05   -0.13420E-05   234   0.227E-02    0.156E-02
DAV:   4    -0.129531876467E+03   -0.44005E-05   -0.15950E-05   268   0.211E-02    0.299E-03
DAV:   5    -0.129531876819E+03   -0.35210E-06   -0.32693E-06   239   0.974E-03    0.160E-03
DAV:   6    -0.129531877064E+03   -0.24446E-06   -0.38834E-07   198   0.324E-03
  80 F= -.12953188E+03 E0= -.12953188E+03  d E =-.157982E-03
damped:  g(F)=  0.000E+00 g(S)=  0.000E+00 dE (1.order)= 0.000E+00
 bond charge predicted
       N       E                     dE             d eps       ncg     rms          rms(c)
DAV:   1    -0.129531975528E+03   -0.98709E-04   -0.55505E-02   329   0.122E+00    0.495E-02
DAV:   2    -0.129532060369E+03   -0.84841E-04   -0.11491E-03   348   0.153E-01    0.329E-02
DAV:   3    -0.129532056809E+03    0.35603E-05   -0.23372E-05   267   0.281E-02    0.185E-02
DAV:   4    -0.129532062664E+03   -0.58554E-05   -0.18309E-05   219   0.242E-02    0.302E-03
DAV:   5    -0.129532063248E+03   -0.58354E-06   -0.43902E-06   272   0.110E-02    0.199E-03
DAV:   6    -0.129532063657E+03   -0.40941E-06   -0.57759E-07   200   0.388E-03
  81 F= -.12953206E+03 E0= -.12953206E+03  d E =-.186594E-03
damped:  g(F)=  0.000E+00 g(S)=  0.000E+00 dE (1.order)= 0.000E+00
 bond charge predicted
       N       E                     dE             d eps       ncg     rms          rms(c)
DAV:   1    -0.129532154889E+03   -0.91641E-04   -0.72400E-02   330   0.139E+00    0.570E-02
DAV:   2    -0.129532268549E+03   -0.11366E-03   -0.15345E-03   360   0.178E-01    0.383E-02
DAV:   3    -0.129532262782E+03    0.57663E-05   -0.27842E-05   268   0.315E-02    0.211E-02
DAV:   4    -0.129532269362E+03   -0.65791E-05   -0.25120E-05   250   0.269E-02    0.362E-03
DAV:   5    -0.129532270024E+03   -0.66251E-06   -0.51161E-06   264   0.118E-02    0.218E-03
DAV:   6    -0.129532270493E+03   -0.46851E-06   -0.64864E-07   210   0.415E-03
  82 F= -.12953227E+03 E0= -.12953227E+03  d E =-.206835E-03
damped:  g(F)=  0.000E+00 g(S)=  0.000E+00 dE (1.order)= 0.000E+00
 bond charge predicted
       N       E                     dE             d eps       ncg     rms          rms(c)
DAV:   1    -0.129532254787E+03    0.15237E-04   -0.10199E-01   331   0.166E+00    0.723E-02
DAV:   2    -0.129532435844E+03   -0.18106E-03   -0.24797E-03   329   0.225E-01    0.496E-02
DAV:   3    -0.129532422360E+03    0.13484E-04   -0.65904E-05   350   0.459E-02    0.292E-02
DAV:   4    -0.129532426968E+03   -0.46083E-05   -0.48195E-05   280   0.380E-02    0.521E-03
DAV:   5    -0.129532427995E+03   -0.10269E-05   -0.10163E-05   272   0.168E-02    0.328E-03
DAV:   6    -0.129532428734E+03   -0.73876E-06   -0.14498E-06   232   0.644E-03
  83 F= -.12953243E+03 E0= -.12953243E+03  d E =-.158241E-03
damped:  g(F)=  0.000E+00 g(S)=  0.000E+00 dE (1.order)= 0.000E+00
 bond charge predicted
       N       E                     dE             d eps       ncg     rms          rms(c)
DAV:   1    -0.129532530517E+03   -0.10252E-03   -0.67388E-03   380   0.412E-01    0.281E-02
DAV:   2    -0.129532553766E+03   -0.23248E-04   -0.30012E-04   330   0.754E-02    0.160E-02
DAV:   3    -0.129532551711E+03    0.20548E-05   -0.96381E-06   268   0.175E-02    0.895E-03
DAV:   4    -0.129532551317E+03    0.39446E-06   -0.74374E-06   265   0.134E-02    0.203E-03
DAV:   5    -0.129532551581E+03   -0.26438E-06   -0.15991E-06   272   0.658E-03    0.108E-03
DAV:   6    -0.129532551827E+03   -0.24578E-06   -0.27826E-07   234   0.269E-03
  84 F= -.12953255E+03 E0= -.12953255E+03  d E =-.123093E-03
damped:  g(F)=  0.000E+00 g(S)=  0.000E+00 dE (1.order)= 0.000E+00
 bond charge predicted
       N       E                     dE             d eps       ncg     rms          rms(c)
DAV:   1    -0.129532465062E+03    0.86519E-04   -0.66349E-03   366   0.417E-01    0.268E-02
DAV:   2    -0.129532484488E+03   -0.19426E-04   -0.29388E-04   306   0.755E-02    0.160E-02
DAV:   3    -0.129532480664E+03    0.38237E-05   -0.11005E-05   272   0.182E-02    0.926E-03
DAV:   4    -0.129532477634E+03    0.30303E-05   -0.81141E-06   264   0.142E-02    0.227E-03
DAV:   5    -0.129532477391E+03    0.24227E-06   -0.17171E-06   272   0.687E-03    0.121E-03
DAV:   6    -0.129532477651E+03   -0.25978E-06   -0.32610E-07   202   0.288E-03
  85 F= -.12953248E+03 E0= -.12953248E+03  d E =0.741755E-04
damped:  g(F)=  0.000E+00 g(S)=  0.000E+00 dE (1.order)= 0.000E+00
 bond charge predicted
       N       E                     dE             d eps       ncg     rms          rms(c)
DAV:   1    -0.129532515955E+03   -0.38563E-04   -0.33790E-04   344   0.919E-02    0.641E-03
DAV:   2    -0.129532517734E+03   -0.17796E-05   -0.14939E-05   250   0.188E-02    0.350E-03
DAV:   3    -0.129532518474E+03   -0.73968E-06   -0.16532E-06   224   0.631E-03    0.181E-03
DAV:   4    -0.129532519435E+03   -0.96070E-06   -0.42753E-07   233   0.315E-03    0.556E-04
DAV:   5    -0.129532520133E+03   -0.69850E-06   -0.15132E-07   277   0.167E-03    0.237E-04
DAV:   6    -0.129532520491E+03   -0.35795E-06   -0.14122E-08   224   0.783E-04
  86 F= -.12953252E+03 E0= -.12953252E+03  d E =-.428401E-04
damped:  g(F)=  0.000E+00 g(S)=  0.000E+00 dE (1.order)= 0.000E+00
 bond charge predicted
       N       E                     dE             d eps       ncg     rms          rms(c)
DAV:   1    -0.129532561920E+03   -0.41787E-04   -0.10595E-03   361   0.163E-01    0.110E-02
DAV:   2    -0.129532564822E+03   -0.29023E-05   -0.42377E-05   212   0.297E-02    0.614E-03
DAV:   3    -0.129532564826E+03   -0.40200E-08   -0.47978E-06   270   0.105E-02    0.314E-03
DAV:   4    -0.129532564772E+03    0.53858E-07   -0.15625E-06   267   0.547E-03    0.112E-03
DAV:   5    -0.129532564758E+03    0.14353E-07   -0.28780E-07   270   0.309E-03    0.557E-04
DAV:   6    -0.129532564804E+03   -0.45524E-07   -0.30015E-08   222   0.142E-03
  87 F= -.12953256E+03 E0= -.12953256E+03  d E =-.443123E-04
damped:  g(F)=  0.000E+00 g(S)=  0.000E+00 dE (1.order)= 0.000E+00
 bond charge predicted
       N       E                     dE             d eps       ncg     rms          rms(c)
DAV:   1    -0.129532573655E+03   -0.88970E-05   -0.14783E-03   390   0.193E-01    0.128E-02
DAV:   2    -0.129532576930E+03   -0.32745E-05   -0.60954E-05   234   0.350E-02    0.714E-03
DAV:   3    -0.129532576121E+03    0.80890E-06   -0.48575E-06   270   0.103E-02    0.408E-03
DAV:   4    -0.129532575232E+03    0.88892E-06   -0.22308E-06   201   0.714E-03    0.100E-03
DAV:   5    -0.129532575205E+03    0.27167E-07   -0.55723E-07   264   0.365E-03    0.559E-04
DAV:   6    -0.129532575311E+03   -0.10611E-06   -0.14380E-07   200   0.171E-03
  88 F= -.12953258E+03 E0= -.12953258E+03  d E =-.105072E-04
damped:  g(F)=  0.000E+00 g(S)=  0.000E+00 dE (1.order)= 0.000E+00
 bond charge predicted
       N       E                     dE             d eps       ncg     rms          rms(c)
DAV:   1    -0.129532557033E+03    0.18171E-04   -0.10084E-03   366   0.161E-01    0.101E-02
DAV:   2    -0.129532559108E+03   -0.20746E-05   -0.38288E-05   212   0.284E-02    0.581E-03
DAV:   3    -0.129532558758E+03    0.35055E-06   -0.44072E-06   165   0.100E-02    0.307E-03
DAV:   4    -0.129532558477E+03    0.28006E-06   -0.12388E-06   223   0.532E-03    0.969E-04
DAV:   5    -0.129532558598E+03   -0.12014E-06   -0.36791E-07   192   0.297E-03    0.437E-04
DAV:   6    -0.129532558817E+03   -0.21895E-06   -0.11115E-07   173   0.146E-03
  89 F= -.12953256E+03 E0= -.12953256E+03  d E =0.164942E-04
damped:  g(F)=  0.000E+00 g(S)=  0.000E+00 dE (1.order)= 0.000E+00
 bond charge predicted
       N       E                     dE             d eps       ncg     rms          rms(c)
DAV:   1    -0.129532562589E+03   -0.39914E-05   -0.63862E-06   229   0.132E-02    0.780E-04
DAV:   2    -0.129532562886E+03   -0.29737E-06   -0.46576E-07   200   0.366E-03    0.503E-04
DAV:   3    -0.129532563132E+03   -0.24524E-06   -0.43251E-08   196   0.112E-03    0.340E-04
DAV:   4    -0.129532563589E+03   -0.45701E-06   -0.34954E-09   233   0.699E-04    0.936E-05
DAV:   5    -0.129532563803E+03   -0.21473E-06    0.12790E-08   220   0.356E-04    0.637E-05
DAV:   6    -0.129532564053E+03   -0.24971E-06    0.20547E-08   234   0.240E-04
  90 F= -.12953256E+03 E0= -.12953256E+03  d E =-.523653E-05
damped:  g(F)=  0.000E+00 g(S)=  0.000E+00 dE (1.order)= 0.000E+00
 bond charge predicted
       N       E                     dE             d eps       ncg     rms          rms(c)
DAV:   1    -0.129532570300E+03   -0.64965E-05   -0.24167E-05   227   0.257E-02    0.141E-03
DAV:   2    -0.129532570602E+03   -0.30160E-06   -0.18165E-06   246   0.711E-03    0.909E-04
DAV:   3    -0.129532570720E+03   -0.11879E-06   -0.19391E-07   208   0.219E-03    0.661E-04
DAV:   4    -0.129532570880E+03   -0.15971E-06   -0.28153E-08   255   0.125E-03    0.214E-04
DAV:   5    -0.129532570949E+03   -0.69281E-07    0.19908E-08   236   0.636E-04    0.120E-04
DAV:   6    -0.129532570993E+03   -0.43236E-07    0.37298E-08   219   0.373E-04
  91 F= -.12953257E+03 E0= -.12953257E+03  d E =-.693946E-05
damped:  g(F)=  0.000E+00 g(S)=  0.000E+00 dE (1.order)= 0.000E+00
 bond charge predicted
       N       E                     dE             d eps       ncg     rms          rms(c)
DAV:   1    -0.129532578273E+03   -0.73237E-05   -0.49425E-05   199   0.368E-02    0.201E-03
DAV:   2    -0.129532578585E+03   -0.31177E-06   -0.37458E-06   203   0.102E-02    0.130E-03
DAV:   3    -0.129532578606E+03   -0.20786E-07   -0.43157E-07   165   0.316E-03    0.951E-04
DAV:   4    -0.129532578587E+03    0.18543E-07   -0.93716E-08   256   0.181E-03    0.312E-04
DAV:   5    -0.129532578590E+03   -0.33506E-08    0.31576E-09   166   0.917E-04    0.176E-04
DAV:   6    -0.129532578602E+03   -0.12028E-07    0.36319E-08   164   0.537E-04
  92 F= -.12953258E+03 E0= -.12953258E+03  d E =-.760989E-05
damped:  g(F)=  0.000E+00 g(S)=  0.000E+00 dE (1.order)= 0.000E+00
 bond charge predicted
       N       E                     dE             d eps       ncg     rms          rms(c)
DAV:   1    -0.129532585582E+03   -0.69911E-05   -0.76215E-05   165   0.459E-02    0.247E-03
DAV:   2    -0.129532586053E+03   -0.47109E-06   -0.57817E-06   230   0.127E-02    0.160E-03
DAV:   3    -0.129532586075E+03   -0.22427E-07   -0.69619E-07   166   0.395E-03    0.118E-03
DAV:   4    -0.129532586023E+03    0.51950E-07   -0.17467E-07   237   0.226E-03    0.390E-04
DAV:   5    -0.129532586011E+03    0.11762E-07   -0.27501E-08   168   0.115E-03    0.218E-04
DAV:   6    -0.129532586024E+03   -0.12264E-07    0.23287E-08   164   0.668E-04
  93 F= -.12953259E+03 E0= -.12953259E+03  d E =-.742112E-05
damped:  g(F)=  0.000E+00 g(S)=  0.000E+00 dE (1.order)= 0.000E+00
 bond charge predicted
       N       E                     dE             d eps       ncg     rms          rms(c)
DAV:   1    -0.129532591459E+03   -0.54475E-05   -0.98129E-05   165   0.523E-02    0.278E-03
DAV:   2    -0.129532592057E+03   -0.59832E-06   -0.74002E-06   200   0.144E-02    0.180E-03
DAV:   3    -0.129532592091E+03   -0.33714E-07   -0.92013E-07   164   0.451E-03    0.133E-03
DAV:   4    -0.129532592033E+03    0.58354E-07   -0.24357E-07   222   0.257E-03    0.443E-04
DAV:   5    -0.129532592025E+03    0.78271E-08   -0.54855E-08   164   0.130E-03    0.246E-04
DAV:   6    -0.129532592047E+03   -0.21948E-07    0.10485E-08   164   0.752E-04
  94 F= -.12953259E+03 E0= -.12953259E+03  d E =-.602308E-05
damped:  g(F)=  0.000E+00 g(S)=  0.000E+00 dE (1.order)= 0.000E+00
 bond charge predicted
       N       E                     dE             d eps       ncg     rms          rms(c)
DAV:   1    -0.129532595287E+03   -0.32624E-05   -0.11037E-04   174   0.559E-02    0.289E-03
DAV:   2    -0.129532595954E+03   -0.66650E-06   -0.81796E-06   200   0.153E-02    0.186E-03
DAV:   3    -0.129532596001E+03   -0.47388E-07   -0.10390E-06   164   0.481E-03    0.139E-03
DAV:   4    -0.129532595955E+03    0.46230E-07   -0.27342E-07   164   0.273E-03    0.468E-04
DAV:   5    -0.129532595956E+03   -0.95406E-09   -0.65795E-08   164   0.138E-03    0.254E-04
DAV:   6    -0.129532595984E+03   -0.27981E-07    0.58073E-09   164   0.782E-04
  95 F= -.12953260E+03 E0= -.12953260E+03  d E =-.393703E-05
damped:  g(F)=  0.000E+00 g(S)=  0.000E+00 dE (1.order)= 0.000E+00
 bond charge predicted
       N       E                     dE             d eps       ncg     rms          rms(c)
DAV:   1    -0.129532597481E+03   -0.15254E-05   -0.14177E-04   216   0.631E-02    0.318E-03
DAV:   2    -0.129532598108E+03   -0.62715E-06   -0.79635E-06   184   0.148E-02    0.203E-03
DAV:   3    -0.129532598148E+03   -0.39844E-07   -0.10136E-06   164   0.485E-03    0.139E-03
DAV:   4    -0.129532598115E+03    0.32654E-07   -0.28006E-07   164   0.280E-03    0.376E-04
DAV:   5    -0.129532598130E+03   -0.14154E-07   -0.57476E-08   164   0.133E-03    0.228E-04
DAV:   6    -0.129532598163E+03   -0.33787E-07    0.61743E-09   164   0.745E-04
  96 F= -.12953260E+03 E0= -.12953260E+03  d E =-.217974E-05
damped:  g(F)=  0.000E+00 g(S)=  0.000E+00 dE (1.order)= 0.000E+00
 bond charge predicted
       N       E                     dE             d eps       ncg     rms          rms(c)
DAV:   1    -0.129532598750E+03   -0.62013E-06   -0.18048E-04   256   0.705E-02    0.336E-03
DAV:   2    -0.129532599268E+03   -0.51857E-06   -0.69180E-06   166   0.132E-02    0.216E-03
DAV:   3    -0.129532599314E+03   -0.45569E-07   -0.92123E-07   164   0.459E-03    0.136E-03
DAV:   4    -0.129532599315E+03   -0.93951E-09   -0.26046E-07   164   0.273E-03    0.331E-04
DAV:   5    -0.129532599339E+03   -0.24083E-07   -0.47738E-08   164   0.128E-03    0.214E-04
DAV:   6    -0.129532599375E+03   -0.35785E-07    0.10158E-08   164   0.700E-04
  97 F= -.12953260E+03 E0= -.12953260E+03  d E =-.121129E-05
damped:  g(F)=  0.000E+00 g(S)=  0.000E+00 dE (1.order)= 0.000E+00
 bond charge predicted
       N       E                     dE             d eps       ncg     rms          rms(c)
DAV:   1    -0.129532601050E+03   -0.17113E-05   -0.25492E-04   288   0.817E-02    0.382E-03
DAV:   2    -0.129532601374E+03   -0.32366E-06   -0.52868E-06   164   0.120E-02    0.237E-03
DAV:   3    -0.129532601433E+03   -0.59516E-07   -0.64491E-07   164   0.449E-03    0.126E-03
DAV:   4    -0.129532601479E+03   -0.45901E-07   -0.14586E-07   164   0.231E-03    0.312E-04
DAV:   5    -0.129532601513E+03   -0.33378E-07   -0.72993E-09   164   0.119E-03    0.168E-04
DAV:   6    -0.129532601542E+03   -0.29459E-07    0.30879E-08   164   0.556E-04
  98 F= -.12953260E+03 E0= -.12953260E+03  d E =-.216739E-05
damped:  g(F)=  0.000E+00 g(S)=  0.000E+00 dE (1.order)= 0.000E+00
 bond charge predicted
       N       E                     dE             d eps       ncg     rms          rms(c)
DAV:   1    -0.129532606350E+03   -0.48370E-05   -0.41933E-04   271   0.103E-01    0.477E-03
DAV:   2    -0.129532606777E+03   -0.42713E-06   -0.70703E-06   164   0.140E-02    0.287E-03
DAV:   3    -0.129532606918E+03   -0.14163E-06   -0.87394E-07   214   0.531E-03    0.139E-03
DAV:   4    -0.129532607007E+03   -0.88913E-07   -0.18858E-07   197   0.258E-03    0.317E-04
DAV:   5    -0.129532607037E+03   -0.29350E-07   -0.76132E-09   180   0.131E-03    0.172E-04
DAV:   6    -0.129532607053E+03   -0.16782E-07    0.39434E-08   164   0.605E-04
  99 F= -.12953261E+03 E0= -.12953261E+03  d E =-.551139E-05
damped:  g(F)=  0.000E+00 g(S)=  0.000E+00 dE (1.order)= 0.000E+00
 bond charge predicted
       N       E                     dE             d eps       ncg     rms          rms(c)
DAV:   1    -0.129532616256E+03   -0.92189E-05   -0.76270E-04   326   0.140E-01    0.644E-03
DAV:   2    -0.129532616771E+03   -0.51551E-06   -0.10355E-05   212   0.164E-02    0.392E-03
DAV:   3    -0.129532616931E+03   -0.15945E-06   -0.13082E-06   227   0.621E-03    0.180E-03
DAV:   4    -0.129532617027E+03   -0.96537E-07   -0.32126E-07   186   0.307E-03    0.417E-04
DAV:   5    -0.129532617052E+03   -0.24607E-07   -0.34481E-08   164   0.153E-03    0.192E-04
DAV:   6    -0.129532617063E+03   -0.11685E-07    0.32987E-08   164   0.706E-04
 100 F= -.12953262E+03 E0= -.12953262E+03  d E =-.100099E-04
damped:  g(F)=  0.000E+00 g(S)=  0.000E+00 dE (1.order)= 0.000E+00
 bond charge predicted
       N       E                     dE             d eps       ncg     rms          rms(c)
DAV:   1    -0.129532628605E+03   -0.11553E-04   -0.13422E-03   292   0.186E-01    0.861E-03
DAV:   2    -0.129532629670E+03   -0.10651E-05   -0.20366E-05   263   0.228E-02    0.527E-03
DAV:   3    -0.129532629865E+03   -0.19532E-06   -0.25677E-06   248   0.855E-03    0.247E-03
DAV:   4    -0.129532629967E+03   -0.10181E-06   -0.68823E-07   240   0.431E-03    0.588E-04
DAV:   5    -0.129532629993E+03   -0.25829E-07   -0.13090E-07   166   0.218E-03    0.271E-04
DAV:   6    -0.129532630015E+03   -0.22059E-07    0.12714E-09   164   0.101E-03
 101 F= -.12953263E+03 E0= -.12953263E+03  d E =-.129514E-04
damped:  g(F)=  0.000E+00 g(S)=  0.000E+00 dE (1.order)= 0.000E+00
 bond charge predicted
       N       E                     dE             d eps       ncg     rms          rms(c)
DAV:   1    -0.129532639770E+03   -0.97772E-05   -0.21797E-03   324   0.237E-01    0.110E-02
DAV:   2    -0.129532641533E+03   -0.17633E-05   -0.33844E-05   221   0.293E-02    0.673E-03
DAV:   3    -0.129532641753E+03   -0.22033E-06   -0.42883E-06   263   0.110E-02    0.316E-03
DAV:   4    -0.129532641872E+03   -0.11820E-06   -0.11885E-06   252   0.555E-03    0.757E-04
DAV:   5    -0.129532641912E+03   -0.40316E-07   -0.26478E-07   184   0.282E-03    0.352E-04
DAV:   6    -0.129532641962E+03   -0.49597E-07   -0.45227E-08   181   0.131E-03
 102 F= -.12953264E+03 E0= -.12953264E+03  d E =-.119469E-04
damped:  g(F)=  0.000E+00 g(S)=  0.000E+00 dE (1.order)= 0.000E+00
 bond charge predicted
       N       E                     dE             d eps       ncg     rms          rms(c)
DAV:   1    -0.129532649735E+03   -0.78234E-05   -0.32075E-03   327   0.287E-01    0.132E-02
DAV:   2    -0.129532652112E+03   -0.23770E-05   -0.45648E-05   200   0.343E-02    0.806E-03
DAV:   3    -0.129532652563E+03   -0.45037E-06   -0.58938E-06   208   0.129E-02    0.373E-03
DAV:   4    -0.129532652850E+03   -0.28709E-06   -0.16321E-06   242   0.643E-03    0.873E-04
DAV:   5    -0.129532652939E+03   -0.89055E-07   -0.37791E-07   189   0.323E-03    0.405E-04
DAV:   6    -0.129532653017E+03   -0.78530E-07   -0.81859E-08   173   0.150E-03
 103 F= -.12953265E+03 E0= -.12953265E+03  d E =-.110558E-04
damped:  g(F)=  0.000E+00 g(S)=  0.000E+00 dE (1.order)= 0.000E+00
 bond charge predicted
       N       E                     dE             d eps       ncg     rms          rms(c)
DAV:   1    -0.129532665886E+03   -0.12947E-04   -0.44346E-03   344   0.335E-01    0.155E-02
DAV:   2    -0.129532668842E+03   -0.29557E-05   -0.56921E-05   235   0.386E-02    0.939E-03
DAV:   3    -0.129532669704E+03   -0.86186E-06   -0.75162E-06   201   0.146E-02    0.427E-03
DAV:   4    -0.129532670269E+03   -0.56488E-06   -0.20487E-06   236   0.713E-03    0.982E-04
DAV:   5    -0.129532670407E+03   -0.13861E-06   -0.46974E-07   198   0.351E-03    0.447E-04
DAV:   6    -0.129532670491E+03   -0.84086E-07   -0.10124E-07   181   0.161E-03
 104 F= -.12953267E+03 E0= -.12953267E+03  d E =-.174739E-04
damped:  g(F)=  0.000E+00 g(S)=  0.000E+00 dE (1.order)= 0.000E+00
 bond charge predicted
       N       E                     dE             d eps       ncg     rms          rms(c)
DAV:   1    -0.129532691167E+03   -0.20760E-04   -0.61070E-03   392   0.394E-01    0.184E-02
DAV:   2    -0.129532695460E+03   -0.42933E-05   -0.82427E-05   228   0.462E-02    0.112E-02
DAV:   3    -0.129532696581E+03   -0.11208E-05   -0.10915E-05   245   0.175E-02    0.529E-03
DAV:   4    -0.129532697255E+03   -0.67328E-06   -0.29846E-06   272   0.871E-03    0.127E-03
DAV:   5    -0.129532697376E+03   -0.12149E-06   -0.70828E-07   200   0.432E-03    0.568E-04
DAV:   6    -0.129532697449E+03   -0.72562E-07   -0.16421E-07   164   0.196E-03
 105 F= -.12953270E+03 E0= -.12953270E+03  d E =-.269573E-04
damped:  g(F)=  0.000E+00 g(S)=  0.000E+00 dE (1.order)= 0.000E+00
 bond charge predicted
       N       E                     dE             d eps       ncg     rms          rms(c)
DAV:   1    -0.129532716975E+03   -0.19599E-04   -0.80519E-03   342   0.454E-01    0.213E-02
DAV:   2    -0.129532722891E+03   -0.59160E-05   -0.11378E-04   228   0.542E-02    0.130E-02
DAV:   3    -0.129532724162E+03   -0.12715E-05   -0.15095E-05   238   0.204E-02    0.622E-03
DAV:   4    -0.129532724904E+03   -0.74225E-06   -0.41515E-06   270   0.103E-02    0.151E-03
DAV:   5    -0.129532725048E+03   -0.14320E-06   -0.10309E-06   202   0.511E-03    0.676E-04
DAV:   6    -0.129532725158E+03   -0.11045E-06   -0.27812E-07   166   0.234E-03
 106 F= -.12953273E+03 E0= -.12953273E+03  d E =-.277094E-04
damped:  g(F)=  0.000E+00 g(S)=  0.000E+00 dE (1.order)= 0.000E+00
 reached required accuracy - stopping structural energy minimisation
