<?xml version="1.0" encoding="ISO-8859-1"?>
<modeling>
 <generator>
  <i name="program" type="string">vasp </i>
  <i name="version" type="string">5.4.1  </i>
  <i name="subversion" type="string">24Jun15 (build Jan 13 2020 12:58:22) complex                          parallel </i>
  <i name="platform" type="string">IFC91_ompi </i>
  <i name="date" type="string">2020 02 03 </i>
  <i name="time" type="string">09:56:59 </i>
 </generator>
 <incar>
  <i type="int" name="ISTART">     0</i>
  <i type="string" name="PREC">normal</i>
  <i type="int" name="NELM">   500</i>
  <i type="int" name="NELMIN">     6</i>
  <i type="int" name="IBRION">     3</i>
  <i name="EDIFF">      0.00010000</i>
  <i name="EDIFFG">     -0.10000000</i>
  <i type="int" name="NSW">   300</i>
  <i type="int" name="ISIF">     2</i>
  <i name="ENCUT">    400.00000000</i>
  <i name="POTIM">      0.00000000</i>
  <i name="SMASS">      2.00000000</i>
  <i type="string" name="LREAL"> Auto</i>
  <i type="int" name="ISMEAR">     0</i>
  <i name="SIGMA">      0.20000000</i>
  <i type="logical" name="LWAVE"> F  </i>
  <i type="logical" name="LCHARG"> F  </i>
  <v type="int" name="KPOINT_BSE">    -1     0     0     0</v>
  <i type="int" name="NELM">   500</i>
  <i type="string" name="GGA"> PE</i>
 </incar>
 <kpoints>
  <generation param="Monkhorst-Pack">
   <v type="int" name="divisions">       2        2        2 </v>
   <v name="usershift">      0.00000000       0.00000000       0.00000000 </v>
   <v name="genvec1">      0.50000000       0.00000000       0.00000000 </v>
   <v name="genvec2">      0.00000000       0.50000000       0.00000000 </v>
   <v name="genvec3">      0.00000000       0.00000000       0.50000000 </v>
   <v name="shift">      0.50000000       0.50000000       0.50000000 </v>
  </generation>
  <varray name="kpointlist" >
   <v>       0.25000000       0.25000000       0.25000000 </v>
   <v>      -0.25000000       0.25000000       0.25000000 </v>
   <v>       0.25000000      -0.25000000       0.25000000 </v>
   <v>      -0.25000000      -0.25000000       0.25000000 </v>
  </varray>
  <varray name="weights" >
   <v>       0.25000000 </v>
   <v>       0.25000000 </v>
   <v>       0.25000000 </v>
   <v>       0.25000000 </v>
  </varray>
 </kpoints>
 <parameters>
  <separator name="general" >
   <i type="string" name="SYSTEM">unknown system</i>
   <i type="logical" name="LCOMPAT"> F  </i>
  </separator>
  <separator name="electronic" >
   <i type="string" name="PREC">normal</i>
   <i name="ENMAX">    400.00000000</i>
   <i name="ENAUG">    644.87300000</i>
   <i name="EDIFF">      0.00010000</i>
   <i type="int" name="IALGO">    38</i>
   <i type="int" name="IWAVPR">    11</i>
   <i type="int" name="NBANDS">    41</i>
   <i name="NELECT">     58.00000000</i>
   <i type="int" name="TURBO">     0</i>
   <i type="int" name="IRESTART">     0</i>
   <i type="int" name="NREBOOT">     0</i>
   <i type="int" name="NMIN">     0</i>
   <i name="EREF">      0.00000000</i>
   <separator name="electronic smearing" >
    <i type="int" name="ISMEAR">     0</i>
    <i name="SIGMA">      0.20000000</i>
    <i name="KSPACING">      0.50000000</i>
    <i type="logical" name="KGAMMA"> T  </i>
   </separator>
   <separator name="electronic projectors" >
    <i type="logical" name="LREAL"> T  </i>
    <v name="ROPT">     -0.00050000     -0.00050000     -0.00050000     -0.00050000</v>
    <i type="int" name="LMAXPAW">  -100</i>
    <i type="int" name="LMAXMIX">     2</i>
    <i type="logical" name="NLSPLINE"> F  </i>
   </separator>
   <separator name="electronic startup" >
    <i type="int" name="ISTART">     0</i>
    <i type="int" name="ICHARG">     2</i>
    <i type="int" name="INIWAV">     1</i>
   </separator>
   <separator name="electronic spin" >
    <i type="int" name="ISPIN">     1</i>
    <i type="logical" name="LNONCOLLINEAR"> F  </i>
    <v name="MAGMOM">      1.00000000      1.00000000      1.00000000      1.00000000      1.00000000      1.00000000      1.00000000      1.00000000      1.00000000      1.00000000      1.00000000      1.00000000      1.00000000      1.00000000      1.00000000      1.00000000      1.00000000      1.00000000      1.00000000      1.00000000
      1.00000000      1.00000000</v>
    <i name="NUPDOWN">     -1.00000000</i>
    <i type="logical" name="LSORBIT"> F  </i>
    <v name="SAXIS">      0.00000000      0.00000000      1.00000000</v>
    <i type="logical" name="LSPIRAL"> F  </i>
    <v name="QSPIRAL">      0.00000000      0.00000000      0.00000000</v>
    <i type="logical" name="LZEROZ"> F  </i>
   </separator>
   <separator name="electronic exchange-correlation" >
    <i type="logical" name="LASPH"> F  </i>
    <i type="logical" name="LMETAGGA"> F  </i>
   </separator>
   <separator name="electronic convergence" >
    <i type="int" name="NELM">   500</i>
    <i type="int" name="NELMDL">    -5</i>
    <i type="int" name="NELMIN">     6</i>
    <i name="ENINI">    400.00000000</i>
    <separator name="electronic convergence detail" >
     <i type="logical" name="LDIAG"> T  </i>
     <i type="logical" name="LSUBROT"> F  </i>
     <i name="WEIMIN">      0.00100000</i>
     <i name="EBREAK">      0.00000061</i>
     <i name="DEPER">      0.30000000</i>
     <i type="int" name="NRMM">     4</i>
     <i name="TIME">      0.40000000</i>
    </separator>
   </separator>
   <separator name="electronic mixer" >
    <i name="AMIX">      0.40000000</i>
    <i name="BMIX">      1.00000000</i>
    <i name="AMIN">      0.10000000</i>
    <i name="AMIX_MAG">      1.60000000</i>
    <i name="BMIX_MAG">      1.00000000</i>
    <separator name="electronic mixer details" >
     <i type="int" name="IMIX">     4</i>
     <i type="logical" name="MIXFIRST"> F  </i>
     <i type="int" name="MAXMIX">   -45</i>
     <i name="WC">    100.00000000</i>
     <i type="int" name="INIMIX">     1</i>
     <i type="int" name="MIXPRE">     1</i>
     <i type="int" name="MREMOVE">     5</i>
    </separator>
   </separator>
   <separator name="electronic dipolcorrection" >
    <i type="logical" name="LDIPOL"> F  </i>
    <i type="logical" name="LMONO"> F  </i>
    <i type="int" name="IDIPOL">     0</i>
    <i name="EPSILON">      1.00000000</i>
    <v name="DIPOL">   -100.00000000   -100.00000000   -100.00000000</v>
    <i name="EFIELD">      0.00000000</i>
   </separator>
  </separator>
  <separator name="grids" >
   <i type="int" name="NGX">   150</i>
   <i type="int" name="NGY">   150</i>
   <i type="int" name="NGZ">   150</i>
   <i type="int" name="NGXF">   300</i>
   <i type="int" name="NGYF">   300</i>
   <i type="int" name="NGZF">   300</i>
   <i type="logical" name="ADDGRID"> F  </i>
  </separator>
  <separator name="ionic" >
   <i type="int" name="NSW">   300</i>
   <i type="int" name="IBRION">     3</i>
   <i type="int" name="ISIF">     2</i>
   <i name="PSTRESS">      0.00000000</i>
   <i name="EDIFFG">     -0.10000000</i>
   <i type="int" name="NFREE">     0</i>
   <i name="POTIM">      0.00000000</i>
   <i name="SMASS">      2.00000000</i>
   <i name="SCALEE">      1.00000000</i>
  </separator>
  <separator name="ionic md" >
   <i name="TEBEG">      0.00010000</i>
   <i name="TEEND">      0.00010000</i>
   <i type="int" name="NBLOCK">     1</i>
   <i type="int" name="KBLOCK">   300</i>
   <i type="int" name="NPACO">   256</i>
   <i name="APACO">     16.00000000</i>
  </separator>
  <separator name="symmetry" >
   <i type="int" name="ISYM">     2</i>
   <i name="SYMPREC">      0.00001000</i>
  </separator>
  <separator name="dos" >
   <i type="logical" name="LORBIT"> F  </i>
   <v name="RWIGS">     -1.00000000     -1.00000000     -1.00000000     -1.00000000</v>
   <i type="int" name="NEDOS">   301</i>
   <i name="EMIN">     10.00000000</i>
   <i name="EMAX">    -10.00000000</i>
   <i name="EFERMI">      0.00000000</i>
  </separator>
  <separator name="writing" >
   <i type="int" name="NWRITE">     2</i>
   <i type="logical" name="LWAVE"> F  </i>
   <i type="logical" name="LCHARG"> F  </i>
   <i type="logical" name="LPARD"> F  </i>
   <i type="logical" name="LVTOT"> F  </i>
   <i type="logical" name="LVHAR"> F  </i>
   <i type="logical" name="LELF"> F  </i>
   <i type="logical" name="LOPTICS"> F  </i>
   <v name="STM">      0.00000000      0.00000000      0.00000000      0.00000000      0.00000000      0.00000000      0.00000000</v>
  </separator>
  <separator name="performance" >
   <i type="int" name="NPAR">     1</i>
   <i type="int" name="NSIM">     4</i>
   <i type="int" name="NBLK">    -1</i>
   <i type="logical" name="LPLANE"> T  </i>
   <i type="logical" name="LSCALAPACK"> T  </i>
   <i type="logical" name="LSCAAWARE"> F  </i>
   <i type="logical" name="LSCALU"> F  </i>
   <i type="logical" name="LASYNC"> F  </i>
   <i type="logical" name="LORBITALREAL"> F  </i>
  </separator>
  <separator name="miscellaneous" >
   <i type="int" name="IDIOT">     3</i>
   <i type="logical" name="LMUSIC"> F  </i>
   <v name="POMASS">      1.00000000     12.01100000     14.00100000     16.00000000</v>
   <v name="DARWINR">      0.00000000      0.00000000      0.00000000      0.00000000</v>
   <v name="DARWINV">      1.00000000      1.00000000      1.00000000      1.00000000</v>
   <i type="logical" name="LCORR"> T  </i>
  </separator>
  <i type="logical" name="GGA_COMPAT"> T  </i>
  <i type="logical" name="LBERRY"> F  </i>
  <i type="int" name="ICORELEVEL">     0</i>
  <i type="logical" name="LDAU"> F  </i>
  <i type="int" name="I_CONSTRAINED_M">     0</i>
  <separator name="electronic exchange-correlation" >
   <i type="string" name="GGA">PE</i>
   <i type="int" name="VOSKOWN">     0</i>
   <i type="logical" name="LHFCALC"> F  </i>
   <i type="string" name="PRECFOCK"></i>
   <i type="logical" name="LSYMGRAD"> F  </i>
   <i type="logical" name="LHFONE"> F  </i>
   <i type="logical" name="LRHFCALC"> F  </i>
   <i type="logical" name="LTHOMAS"> F  </i>
   <i type="logical" name="LMODELHF"> F  </i>
   <i name="ENCUT4O">     -1.00000000</i>
   <i type="int" name="EXXOEP">     0</i>
   <i type="int" name="FOURORBIT">     0</i>
   <i name="AEXX">      0.00000000</i>
   <i name="HFALPHA">      0.00000000</i>
   <i name="MCALPHA">      0.00000000</i>
   <i name="ALDAX">      1.00000000</i>
   <i name="AGGAX">      1.00000000</i>
   <i name="ALDAC">      1.00000000</i>
   <i name="AGGAC">      1.00000000</i>
   <i type="int" name="NKREDX">     1</i>
   <i type="int" name="NKREDY">     1</i>
   <i type="int" name="NKREDZ">     1</i>
   <i type="logical" name="SHIFTRED"> F  </i>
   <i type="logical" name="ODDONLY"> F  </i>
   <i type="logical" name="EVENONLY"> F  </i>
   <i type="int" name="LMAXFOCK">     0</i>
   <i type="int" name="NMAXFOCKAE">     0</i>
   <i type="logical" name="LFOCKAEDFT"> F  </i>
   <i name="HFSCREEN">      0.00000000</i>
   <i name="HFSCREENC">      0.00000000</i>
   <i type="int" name="NBANDSGWLOW">     0</i>
  </separator>
  <separator name="vdW DFT" >
   <i type="logical" name="LUSE_VDW"> F  </i>
   <i name="Zab_VDW">     -0.84910000</i>
   <i name="PARAM1">      0.12340000</i>
   <i name="PARAM2">      1.00000000</i>
   <i name="PARAM3">      0.00000000</i>
  </separator>
  <separator name="model GW" >
   <i type="int" name="MODEL_GW">     0</i>
   <i name="MODEL_EPS0">    736.36363636</i>
   <i name="MODEL_ALPHA">      1.00000000</i>
  </separator>
  <separator name="linear response parameters" >
   <i type="logical" name="LEPSILON"> F  </i>
   <i type="logical" name="LRPA"> F  </i>
   <i type="logical" name="LNABLA"> F  </i>
   <i type="logical" name="LVEL"> F  </i>
   <i type="int" name="KINTER">     0</i>
   <i name="CSHIFT">      0.10000000</i>
   <i name="OMEGAMAX">     -1.00000000</i>
   <i name="DEG_THRESHOLD">      0.00200000</i>
  </separator>
  <separator name="orbital magnetization" >
   <i type="logical" name="NUCIND"> F  </i>
   <v name="MAGPOS">      0.00000000      0.00000000      0.00000000</v>
   <i type="logical" name="LNICSALL"> T  </i>
   <i type="logical" name="ORBITALMAG"> F  </i>
   <i type="logical" name="LMAGBLOCH"> F  </i>
   <i type="logical" name="LCHIMAG"> F  </i>
   <i type="logical" name="LGAUGE"> T  </i>
   <i type="int" name="MAGATOM">     0</i>
   <v name="MAGDIPOL">      0.00000000      0.00000000      0.00000000</v>
   <v name="AVECCONST">      0.00000000      0.00000000      0.00000000</v>
  </separator>
  <separator name="response functions" >
   <i type="logical" name="LADDER"> F  </i>
   <i type="logical" name="LFXC"> F  </i>
   <i type="logical" name="LHARTREE"> T  </i>
   <i type="int" name="IBSE">     0</i>
   <v type="int" name="KPOINT">    -1     0     0     0</v>
   <i type="logical" name="LTCTE"> F  </i>
   <i type="logical" name="LTETE"> F  </i>
   <i type="logical" name="LTRIPLET"> F  </i>
   <i type="logical" name="LFXCEPS"> F  </i>
   <i type="logical" name="LFXHEG"> F  </i>
   <i type="int" name="NATURALO">     0</i>
   <i type="logical" name="L2ORDER"> F  </i>
   <i type="logical" name="LUSEW"> F  </i>
   <i name="ENCUTGW">     -2.00000000</i>
   <i name="ENCUTGWSOFT">     -2.00000000</i>
   <i name="ENCUTLF">     -1.00000000</i>
   <i type="int" name="LMAXMP2">    -1</i>
   <i name="SCISSOR">      0.00000000</i>
   <i type="int" name="NOMEGA">     0</i>
   <i type="int" name="NOMEGAR">     0</i>
   <i type="int" name="NBANDSGW">    -1</i>
   <i type="int" name="NBANDSO">    -1</i>
   <i type="int" name="NBANDSV">    -1</i>
   <i type="int" name="NELM">   500</i>
   <i type="int" name="NELMHF">     1</i>
   <i type="int" name="DIM">     3</i>
   <i type="int" name="ANTIRES">     0</i>
   <i name="OMEGAMAX">    -30.00000000</i>
   <i name="OMEGAMIN">    -30.00000000</i>
   <i name="OMEGATL">   -200.00000000</i>
   <i type="int" name="OMEGAGRID">     0</i>
   <i name="CSHIFT">     -0.10000000</i>
   <i type="logical" name="SELFENERGY"> F  </i>
   <i type="logical" name="LSPECTRAL"> F  </i>
   <i type="logical" name="LSPECTRALGW"> F  </i>
   <i type="logical" name="LSINGLES"> F  </i>
   <i type="logical" name="LFERMIGW"> F  </i>
   <i type="logical" name="ODDONLYGW"> F  </i>
   <i type="logical" name="EVENONLYGW"> F  </i>
   <i type="int" name="NKREDLFX">     1</i>
   <i type="int" name="NKREDLFY">     1</i>
   <i type="int" name="NKREDLFZ">     1</i>
   <i type="int" name="MAXMEM">  1800</i>
   <i type="int" name="TELESCOPE">     0</i>
   <i type="int" name="TAUPAR">     1</i>
   <i type="int" name="OMEGAPAR">    -1</i>
   <i name="LAMBDA">      1.00000000</i>
  </separator>
  <separator name="External order field" >
   <i name="OFIELD_KAPPA">      0.00000000</i>
   <v name="OFIELD_K">      0.00000000      0.00000000      0.00000000</v>
   <i name="OFIELD_Q6_NEAR">      0.00000000</i>
   <i name="OFIELD_Q6_FAR">      0.00000000</i>
   <i name="OFIELD_A">      0.00000000</i>
  </separator>
  <separator name="solvation model" >
   <i type="logical" name="LSOL"> F  </i>
  </separator>
 </parameters>
 <atominfo>
  <atoms>      22 </atoms>
  <types>       4 </types>
  <array name="atoms" >
   <dimension dim="1">ion</dimension>
   <field type="string">element</field>
   <field type="int">atomtype</field>
   <set>
    <rc><c>H </c><c>   1</c></rc>
    <rc><c>H </c><c>   1</c></rc>
    <rc><c>H </c><c>   1</c></rc>
    <rc><c>H </c><c>   1</c></rc>
    <rc><c>H </c><c>   1</c></rc>
    <rc><c>H </c><c>   1</c></rc>
    <rc><c>H </c><c>   1</c></rc>
    <rc><c>H </c><c>   1</c></rc>
    <rc><c>H </c><c>   1</c></rc>
    <rc><c>H </c><c>   1</c></rc>
    <rc><c>H </c><c>   1</c></rc>
    <rc><c>H </c><c>   1</c></rc>
    <rc><c>C </c><c>   2</c></rc>
    <rc><c>C </c><c>   2</c></rc>
    <rc><c>C </c><c>   2</c></rc>
    <rc><c>C </c><c>   2</c></rc>
    <rc><c>C </c><c>   2</c></rc>
    <rc><c>C </c><c>   2</c></rc>
    <rc><c>N </c><c>   3</c></rc>
    <rc><c>N </c><c>   3</c></rc>
    <rc><c>O </c><c>   4</c></rc>
    <rc><c>O </c><c>   4</c></rc>
   </set>
  </array>
  <array name="atomtypes" >
   <dimension dim="1">type</dimension>
   <field type="int">atomspertype</field>
   <field type="string">element</field>
   <field>mass</field>
   <field>valence</field>
   <field type="string">pseudopotential</field>
   <set>
    <rc><c>  12</c><c>H </c><c>      1.00000000</c><c>      1.00000000</c><c>  PAW_PBE H 15Jun2001                   </c></rc>
    <rc><c>   6</c><c>C </c><c>     12.01100000</c><c>      4.00000000</c><c>  PAW_PBE C 08Apr2002                   </c></rc>
    <rc><c>   2</c><c>N </c><c>     14.00100000</c><c>      5.00000000</c><c>  PAW_PBE N 08Apr2002                   </c></rc>
    <rc><c>   2</c><c>O </c><c>     16.00000000</c><c>      6.00000000</c><c>  PAW_PBE O 08Apr2002                   </c></rc>
   </set>
  </array>
 </atominfo>
 <structure name="initialpos" >
  <crystal>
   <varray name="basis" >
    <v>      30.00000000       0.00000000       0.00000000 </v>
    <v>       0.00000000      30.00000000       0.00000000 </v>
    <v>       0.00000000       0.00000000      30.00000000 </v>
   </varray>
   <i name="volume">  27000.00000000 </i>
   <varray name="rec_basis" >
    <v>       0.03333333       0.00000000       0.00000000 </v>
    <v>       0.00000000       0.03333333       0.00000000 </v>
    <v>       0.00000000       0.00000000       0.03333333 </v>
   </varray>
  </crystal>
  <varray name="positions" >
   <v>       0.37842649       0.53819550       0.49941057 </v>
   <v>       0.37553489       0.48168501       0.48170726 </v>
   <v>       0.38453620       0.49407532       0.53901047 </v>
   <v>       0.44777532       0.44562430       0.52352895 </v>
   <v>       0.51932593       0.42986767       0.52236090 </v>
   <v>       0.55809636       0.43536206       0.45035733 </v>
   <v>       0.51811590       0.47434487       0.42972536 </v>
   <v>       0.50177283       0.41865926       0.44281892 </v>
   <v>       0.51546796       0.54576723       0.49350216 </v>
   <v>       0.58008884       0.57112200       0.56123483 </v>
   <v>       0.60928497       0.56130171       0.51072130 </v>
   <v>       0.56591341       0.60226042       0.51240410 </v>
   <v>       0.39223660       0.50481526       0.50471399 </v>
   <v>       0.44191801       0.50609428       0.49452335 </v>
   <v>       0.51339613       0.45962462       0.50161883 </v>
   <v>       0.52327830       0.44655787       0.45303879 </v>
   <v>       0.54887690       0.49274184       0.52006162 </v>
   <v>       0.57634007       0.56946663       0.52471748 </v>
   <v>       0.46596404       0.47059191       0.50953118 </v>
   <v>       0.54323476       0.53665086       0.51158312 </v>
   <v>       0.45864514       0.53765837       0.47346868 </v>
   <v>       0.58177199       0.47753406       0.53995985 </v>
  </varray>
 </structure>
 <calculation>
  <scstep>
   <time name="dav">  312.81  312.55</time>
   <time name="total">  336.86  336.59</time>
   <energy>
    <i name="alphaZ">      0.51957394 </i>
    <i name="ewald">   6089.16659089 </i>
    <i name="hartreedc">  -7833.05209119 </i>
    <i name="XCdc">    201.92461280 </i>
    <i name="pawpsdc">   1779.70502452 </i>
    <i name="pawaedc">  -1789.20730229 </i>
    <i name="eentropy">     -0.79882337 </i>
    <i name="bandstr">   -296.13532582 </i>
    <i name="atom">   2425.98333211 </i>
    <i name="e_fr_energy">    578.10559158 </i>
    <i name="e_wo_entrp">    578.90441496 </i>
    <i name="e_0_energy">    578.50500327 </i>
   </energy>
  </scstep>
  <scstep>
   <time name="dav">  429.04  428.69</time>
   <time name="total">  429.04  428.70</time>
   <energy>
    <i name="e_fr_energy">    241.16281974 </i>
    <i name="e_wo_entrp">    241.53231701 </i>
    <i name="e_0_energy">    241.34756838 </i>
   </energy>
  </scstep>
  <scstep>
   <time name="dav">  366.03  365.73</time>
   <time name="total">  366.04  365.74</time>
   <energy>
    <i name="e_fr_energy">    -51.76743896 </i>
    <i name="e_wo_entrp">    -51.76374421 </i>
    <i name="e_0_energy">    -51.76559158 </i>
   </energy>
  </scstep>
  <scstep>
   <time name="dav">  312.28  312.02</time>
   <time name="total">  312.28  312.03</time>
   <energy>
    <i name="e_fr_energy">   -136.86804068 </i>
    <i name="e_wo_entrp">   -136.86804068 </i>
    <i name="e_0_energy">   -136.86804068 </i>
   </energy>
  </scstep>
  <scstep>
   <time name="dav">  350.49  350.20</time>
   <time name="total">  371.30  371.00</time>
   <energy>
    <i name="e_fr_energy">   -141.82812680 </i>
    <i name="e_wo_entrp">   -141.82812680 </i>
    <i name="e_0_energy">   -141.82812680 </i>
   </energy>
  </scstep>
  <scstep>
   <time name="dav">  298.67  298.43</time>
   <time name="total">  338.69  338.42</time>
   <energy>
    <i name="e_fr_energy">   -131.68869865 </i>
    <i name="e_wo_entrp">   -131.68869865 </i>
    <i name="e_0_energy">   -131.68869865 </i>
   </energy>
  </scstep>
  <scstep>
   <time name="dav">  316.13  315.87</time>
   <time name="total">  357.43  357.14</time>
   <energy>
    <i name="e_fr_energy">   -129.95354818 </i>
    <i name="e_wo_entrp">   -129.95354818 </i>
    <i name="e_0_energy">   -129.95354818 </i>
   </energy>
  </scstep>
  <scstep>
   <time name="dav">  319.61  319.34</time>
   <time name="total">  362.50  362.20</time>
   <energy>
    <i name="e_fr_energy">   -129.46209899 </i>
    <i name="e_wo_entrp">   -129.46209899 </i>
    <i name="e_0_energy">   -129.46209899 </i>
   </energy>
  </scstep>
  <scstep>
   <time name="dav">  334.54  334.27</time>
   <time name="total">  376.51  376.21</time>
   <energy>
    <i name="e_fr_energy">   -129.39490166 </i>
    <i name="e_wo_entrp">   -129.39490166 </i>
    <i name="e_0_energy">   -129.39490166 </i>
   </energy>
  </scstep>
  <scstep>
   <time name="dav">  323.00  322.74</time>
   <time name="total">  366.02  365.73</time>
   <energy>
    <i name="e_fr_energy">   -129.36249908 </i>
    <i name="e_wo_entrp">   -129.36249908 </i>
    <i name="e_0_energy">   -129.36249908 </i>
   </energy>
  </scstep>
  <scstep>
   <time name="dav">  334.85  334.57</time>
   <time name="total">  377.65  377.35</time>
   <energy>
    <i name="e_fr_energy">   -129.37818515 </i>
    <i name="e_wo_entrp">   -129.37818515 </i>
    <i name="e_0_energy">   -129.37818515 </i>
   </energy>
  </scstep>
  <scstep>
   <time name="dav">  327.58  327.31</time>
   <time name="total">  370.23  369.93</time>
   <energy>
    <i name="e_fr_energy">   -129.17436635 </i>
    <i name="e_wo_entrp">   -129.17436635 </i>
    <i name="e_0_energy">   -129.17436635 </i>
   </energy>
  </scstep>
  <scstep>
   <time name="dav">  312.82  312.57</time>
   <time name="total">  353.00  352.72</time>
   <energy>
    <i name="e_fr_energy">   -129.18021463 </i>
    <i name="e_wo_entrp">   -129.18021463 </i>
    <i name="e_0_energy">   -129.18021463 </i>
   </energy>
  </scstep>
  <scstep>
   <time name="dav">  316.75  316.50</time>
   <time name="total">  358.07  357.78</time>
   <energy>
    <i name="e_fr_energy">   -129.18685421 </i>
    <i name="e_wo_entrp">   -129.18685421 </i>
    <i name="e_0_energy">   -129.18685421 </i>
   </energy>
  </scstep>
  <scstep>
   <time name="dav">  268.87  268.65</time>
   <time name="total">  309.79  309.54</time>
   <energy>
    <i name="e_fr_energy">   -129.19464930 </i>
    <i name="e_wo_entrp">   -129.19464930 </i>
    <i name="e_0_energy">   -129.19464930 </i>
   </energy>
  </scstep>
  <scstep>
   <time name="dav">  323.06  322.80</time>
   <time name="total">  366.74  366.45</time>
   <energy>
    <i name="e_fr_energy">   -129.20053056 </i>
    <i name="e_wo_entrp">   -129.20053056 </i>
    <i name="e_0_energy">   -129.20053056 </i>
   </energy>
  </scstep>
  <scstep>
   <time name="dav">  235.64  235.45</time>
   <time name="total">  278.37  278.15</time>
   <energy>
    <i name="e_fr_energy">   -129.20299042 </i>
    <i name="e_wo_entrp">   -129.20299042 </i>
    <i name="e_0_energy">   -129.20299042 </i>
   </energy>
  </scstep>
  <scstep>
   <time name="dav">  275.53  275.31</time>
   <time name="total">  317.71  317.45</time>
   <energy>
    <i name="e_fr_energy">   -129.20489310 </i>
    <i name="e_wo_entrp">   -129.20489310 </i>
    <i name="e_0_energy">   -129.20489310 </i>
   </energy>
  </scstep>
  <scstep>
   <time name="dav">  262.26  262.04</time>
   <time name="total">  305.23  304.98</time>
   <energy>
    <i name="e_fr_energy">   -129.13937002 </i>
    <i name="e_wo_entrp">   -129.13937002 </i>
    <i name="e_0_energy">   -129.13937002 </i>
   </energy>
  </scstep>
  <scstep>
   <time name="dav">  290.90  290.66</time>
   <time name="total">  335.59  335.32</time>
   <energy>
    <i name="e_fr_energy">   -129.13976828 </i>
    <i name="e_wo_entrp">   -129.13976828 </i>
    <i name="e_0_energy">   -129.13976828 </i>
   </energy>
  </scstep>
  <scstep>
   <time name="dav">  248.71  248.51</time>
   <time name="total">  291.05  290.82</time>
   <energy>
    <i name="e_fr_energy">   -129.13996270 </i>
    <i name="e_wo_entrp">   -129.13996270 </i>
    <i name="e_0_energy">   -129.13996270 </i>
   </energy>
  </scstep>
  <scstep>
   <time name="dav">  249.10  248.90</time>
   <time name="total">  290.05  289.82</time>
   <energy>
    <i name="e_fr_energy">   -129.14011324 </i>
    <i name="e_wo_entrp">   -129.14011324 </i>
    <i name="e_0_energy">   -129.14011324 </i>
   </energy>
  </scstep>
  <scstep>
   <time name="dav">  276.06  275.83</time>
   <time name="total">  297.31  297.15</time>
   <energy>
    <i name="alphaZ">      0.51957394 </i>
    <i name="ewald">   6031.87356170 </i>
    <i name="hartreedc">  -8035.70286510 </i>
    <i name="XCdc">    214.01732013 </i>
    <i name="pawpsdc">   4748.34974115 </i>
    <i name="pawaedc">  -4759.55470196 </i>
    <i name="eentropy">      0.00000000 </i>
    <i name="bandstr">   -754.62610971 </i>
    <i name="atom">   2425.98333211 </i>
    <i name="e_fr_energy">   -129.14014774 </i>
    <i name="e_wo_entrp">   -129.14014774 </i>
    <i name="e_0_energy">   -129.14014774 </i>
   </energy>
  </scstep>
  <structure>
   <crystal>
    <varray name="basis" >
     <v>      30.00000000       0.00000000       0.00000000 </v>
     <v>       0.00000000      30.00000000       0.00000000 </v>
     <v>       0.00000000       0.00000000      30.00000000 </v>
    </varray>
    <i name="volume">  27000.00000000 </i>
    <varray name="rec_basis" >
     <v>       0.03333333       0.00000000       0.00000000 </v>
     <v>       0.00000000       0.03333333       0.00000000 </v>
     <v>       0.00000000       0.00000000       0.03333333 </v>
    </varray>
   </crystal>
   <varray name="positions" >
    <v>       0.37506058       0.53551796       0.49740085 </v>
    <v>       0.38041543       0.47923707       0.47942982 </v>
    <v>       0.37881126       0.49169813       0.53730281 </v>
    <v>       0.44939808       0.44787258       0.52199626 </v>
    <v>       0.52311565       0.44862088       0.54399070 </v>
    <v>       0.55615710       0.41553737       0.47763814 </v>
    <v>       0.51460070       0.43877610       0.44244886 </v>
    <v>       0.49922159       0.39867426       0.48358399 </v>
    <v>       0.51078183       0.55270277       0.50796049 </v>
    <v>       0.60514946       0.57590633       0.52377597 </v>
    <v>       0.59157099       0.57225785       0.46621134 </v>
    <v>       0.56111530       0.60918932       0.50137337 </v>
    <v>       0.39092567       0.50365568       0.50492052 </v>
    <v>       0.44114188       0.51168274       0.50395979 </v>
    <v>       0.51516423       0.46384087       0.51122514 </v>
    <v>       0.52145450       0.42690125       0.47639605 </v>
    <v>       0.55246814       0.49917002       0.50490641 </v>
    <v>       0.57733062       0.57653963       0.49984760 </v>
    <v>       0.46703900       0.47577248       0.51443619 </v>
    <v>       0.54379767       0.54305298       0.50996679 </v>
    <v>       0.45522905       0.54947007       0.49435958 </v>
    <v>       0.59005115       0.48392486       0.49687135 </v>
   </varray>
  </structure>
  <varray name="forces" >
   <v>      -0.09745326       0.09468889       0.01338988 </v>
   <v>       0.12687821       0.04914039       0.08339535 </v>
   <v>       0.07431685      -0.04107862       0.11258166 </v>
   <v>      -0.21001776      -0.02130255       0.00072411 </v>
   <v>       0.01688009       0.15325111      -0.07500511 </v>
   <v>      -0.02030146      -0.03290786       0.00670175 </v>
   <v>      -0.06203331       0.08077445      -0.00732362 </v>
   <v>      -0.02075373      -0.05267813      -0.00150044 </v>
   <v>      -0.11927429      -0.09122839      -0.03851542 </v>
   <v>      -0.06030901      -0.06630140       0.00448789 </v>
   <v>      -0.02606572      -0.09536253       0.04843608 </v>
   <v>      -0.00378119       0.10297174       0.04776003 </v>
   <v>       0.09332874      -0.17352319      -0.15644801 </v>
   <v>      -0.03845448       0.01368801       0.01353460 </v>
   <v>      -0.04630719       0.10470578       0.12591144 </v>
   <v>      -0.05497652       0.00946081      -0.02309055 </v>
   <v>       0.05898992       0.02984816      -0.07615730 </v>
   <v>       0.11874469      -0.01904046      -0.00356435 </v>
   <v>       0.05386484      -0.07077989      -0.04301632 </v>
   <v>       0.01404288      -0.11867919      -0.09718515 </v>
   <v>       0.07004390      -0.02357505      -0.03413843 </v>
   <v>       0.13263780       0.16792791       0.09902190 </v>
  </varray>
  <varray name="stress" >
   <v>      -0.22124981       0.01915403      -0.00250522 </v>
   <v>       0.01915403      -0.24210336      -0.00621099 </v>
   <v>      -0.00250522      -0.00621099      -0.23749587 </v>
  </varray>
  <energy>
   <i name="e_fr_energy">   -129.49445001 </i>
   <i name="e_wo_entrp">   -129.49445001 </i>
   <i name="e_0_energy">      0.00000000 </i>
  </energy>
  <time name="totalsc"> 8212.60 8206.11</time>
 </calculation>
 <calculation>
  <scstep>
   <time name="dav">  252.   <time name="dav   <time name="total">  29   <time name="total">  310.85  310.60</time>
   <energy>
    <i name="alphaZ">      0.51957394 </i>
    <i name   <time name="dav">  283.36  283.13</time>
   <time name="total">  330.91  330.64</time>
   <en   <time name="total">  342.85  342.57</time>
   <energy>
    <i name="alphaZ">      0.51957394 </i>
    <i name="ewald">   6053.24760184 </i>
    <i name="hartreedc">  -8057.26445628 </i>
    <i name="XCdc">    214.07890080 </i>
    <i name="pawpsdc">   4765.71767172 </i>
    <i name="pawaedc">  -4776.92099022 </i>
    <i name="eentropy">      0.00000000 </i>
    <i name="bandstr">   -754   <time name="dav">  309.   <time name="dav   <time name="total">  35   <time name="total">  351.19  350.91</time>
   <energy>
    <i name="e_fr_energy">   -129.10556279 </i>
    <i   <time name="dav">  321.12  320.85</time>
   <time name="total">  365.34  365.04</time>
   <en     <time name="dav">  276.   <time name="dav   <time name="total">  31   <time name="total">  323.55  323.29</time>
   <energy>
    <i name="e_fr_energy">   -129.10552282 </i>
    <i   <time name="dav">  268.53  268.31</time>
   <time name="total">  312.07  311.89</time>
   <en     <time name="dav">  271.   <time name="dav   <time name="total">  31   <time name="total">  294.69  294.46</time>
   <energy>
    <i name="e_fr_energy">   -129.10552497 </i>
    <i name="e_wo_entrp">   -129.10552497 </i>
      <time name="total">  281.48  281.25</time>
   <en     <time name="dav">  242.91  242.71</time>
   <time name="total">  281.74  281.51</time>
   <energy>
    <i name="e_fr_energy">   -129.14349734 </i>
    <i name="e_wo_entrp">   -129.14349734 </i>
    <i name="e_0_energy">   -   <time   <time name="dav">  257.37  257.15</time>
     <time name="dav">  256.95  256.74</time>
   <time name="total">  279.73  279.50</time>
   <energy>
    <i name="alphaZ">      0.51957394 </i>
    <i name="ewald">   6032.25054668 </i>
    <i name="hartreedc">  -8036.15708344 </i>
    <time name="dav">  224.54  224.35</time>
   <time name="total">  249.26  249.06</time>
   <energy>
    <i name="alphaZ">      0.51957394 </i>
    <i name="ewald">   6053.24760184 </i>
    <i name="hartreedc">  -8057.38026782 </i>
    <i name="XCdc">    214.08559481 </i>
    <i name="pawpsdc">   4768.17877035 </i>
    <i name="pawaedc">  -4779.38488607 </i>
    <i name="eentropy">      0.00000000 </i>
    <i name="bands  <structure>
   <crystal>
    <varray name="basis" >
     <v>      30.00000000       0.00000000       0.00000000 </v>
     <v>       0.00000000      30.00000000       0.00000000 </v  <structure>
   <crystal>
    <varray name="basis"   <structure>
   <crystal>
    <varray name="basis" >
     <v>      30.00000000       0.00000000       0.00000000 </v>
     <v>       0.00000000      30.00000000       0.00000000 </v>
     <v>       0.00000000       0.00000000      30.00000000 </v>
    </varray>
    <i name="volume">  27000.00000000 </i>
    <varray name="rec_basis" >
     <v>       0.03333333       0.00000000       0.00000000 </v>
     <v>       0.00000000       0.03333333       0.00000000 </v>
     <v>       0.00000000       0.00000000       0.03333333 </v>
    </varray>
   </crystal>
   <varray name="positions" >
    <v>       0.37457317       0.53800961       0.50352385 </v>
    <v>       0.38010012       0.48600806       0.47456171 </v>
    <v>       0.37871404       0.48711308       0.53387193 </v>
    <v>       0.44798825       0.44568956       0.49691094 </v>
    <v>       0.51951708       0.46484012       0.54355363 </v>
    <v>       0.56044702       0.41373734       0.49435859 </v>
    <v>       0.52187513       0.42101195       0.45069173 </v>
    <v>       0.50447089       0.39494880       0.50186494 </v>
    <v>       0.51460451       0.55117981       0.52038629 </v>
    <v>       0.61218859       0.56724782       0.51193345 </v>
    <v>       0.57913569       0.58392245       0.46544884 </v>
    <v>       0.56812789       0.60623292       0.51990700 </v>
    <v>       0.39040131       0.50508908       0.50406408 </v>
    <v>       0.44046338       0.51195203       0.50662798 </v>
    <v>       0.51355231       0.46640343       0.50719992 </v>
    <v>       0.52541210       0.42123126       0.48715354 </v>
    <v>       0.54713446       0.50191872       0.48938359 </v>
    <v>       0.57829374       0.57641986       0.50131284 </v>
    <v>       0.46552472       0.47457819       0.49995121 </v>
    <v>       0.54648766       0.54137389       0.51151699 </v>
    <v>       0.45588295       0.54953296       0.51478380 </v>
    <v>       0.57510595       0.49156213       0.46098828 </v>
   </varray>
  </structure>
  <varray name="forces" >
   <v>      -0.01483169      -0.04213916      -0.03029288 </v>
   <v>       0.01986975      -0.03324419      -0.03631356 </v>
   <v>       0.00146303      -0.00137579      -0.01158636 </v>
   <v>      -0.06575070       0.04238422      -0.11822519 </v>
   <v>      -0.03743406       0.04592807       0.01710865 </v>
   <v>      -0.02119494      -0.06182079       0.02841591 </v>
   <v>      -0.06685605       0.07213254       0.04292601 </v>
   <v>      -0.01021616      -0.05982082      -0.00976249 </v>
   <v>       0.03308006      -0.07150743       0.20104030 </v>
   <v>      -0.04446549      -0.08465158      -0.04554230 </v>
   <v>       0.06308983       0.05532136      -0.06969064 </v>
   <v>       0.03916088       0.05116385      -0.05055673 </v>
   <v>      -0.00212652       0.01546412       0.02017078 </v>
   <v>      -0.00823926      -0.03866858       0.04210100 </v>
   <v>       0.00960494      -0.00979101       0.00756005 </v>
   <v>      -0.01324881      -0.02392395       0.05472377 </v>
   <v>       0.03392381       0.06743950       0.01769115 </v>
   <v>      -0.06943436       0.02712369      -0.03053307 </v>
   <v>       0.01100291      -0.00100245      -0.05584235 </v>
   <v>      -0.04345882       0.06032753      -0.09404926 </v>
   <v>       0.02446160      -0.03403506       0.13126111 </v>
   <v>       0.16160005       0.02469592      -0.01060390 </v>
  </v  <energy>
   <i name="e_fr_energy">   -129.14349962 </i>
   <i name="e_wo_entrp">   -129.14349962 </i>
   <i name="e_0_energy">    <energy>
   <i name="e_fr_ener  <time name="totalsc"> 22  <time name="totalsc"> 22  <time name="totalsc"> 2222.13 2220.34</time>
 </ca  <time name="totalsc"> 22  <time name="totalsc"> 22  <time name="totalsc"> 22  <time name="totalsc"> 2218.95 2219.95</time>
 </ca  <time name="totalsc"> 22   <time name="dav">  259.   <time name="dav   <time name="total">  30   <time name="total">  308.77  308.52</time>
   <en   <time name="total">  321.70  321.44</time>
   <energy>
     <time name="dav">  308.41  308.16</time>
   <time name="total">  355.29  355.00</time>
   <energy>
    <i name="alphaZ">      0.51957394 </i>
    <i name="ewald">   6109.7   <time name="total">  358.13  357.84</time>
   <energy>
    <i name="alphaZ">      0.51957394 </i>
    <i name="ewald">   6064.79427120 </i>
    <i name="hartreedc">  -8068.69824690 </i>
    <i name="XCdc">    214.11130767 </i>
    <i name="pawpsdc">   4792.04240748 </i>
    <i name="pawaedc">  -4803.26377233 <   <time name="dav">  284.78  284.55</time>
   <time name="total">  325.49  32   <time name="dav">  308.35  308.10</time>
   <time name="total">  350.13  349.85</time>
   <energy>
    <i name="e_fr_energy">   -129.52547856 </i>
    <i name="e_wo_entrp">   -129.52547856 </i>
    <   <time name="dav">  228.   <time name="dav">  278.   <time name="dav   <time name="total">  31   <time name="total">  318.92  318.66</time>
   <energy>
    <i name="e_fr_en   <time name="total">  31   <time name="total">  304.74  304.50</time>
   <energy>
     <time name="dav">   <time name="dav">  220.   <time name="dav">  231.28  231.09</time>
   <time name="total">  273.17  273.01</time>
   <energy>
    <i name="e_fr_en   <time   <time name="dav">  259.42  259.21</time>
   <time name="total">  302.91  302.67</time>
   <energy>
    <i name="e_fr_ener   <time name="dav">  210.   <time name="dav">  222.78  222.60</time>
   <time name="total">  263.13  262.92</time>
   <energy>
    <i name="e_fr_en   <time   <time name="dav">  205.88  205.71</time>
   <time name="total">  248.05  247.85</time>
   <energy>
    <i name="e_fr_ener   <time name="dav">  184.   <time name="dav">  217.97  217.80</time>
   <time name="total">  241.14  24   <time name="dav">  227.77  227.59</time>
   <time   <time name="dav">  222.48  222.29</time>
   <time name="total">  244.49  244.30</time>
   <energy>
     <time name="dav">  224.26  224.08</time>
   <time name="total">  248.93  248.73</time>
   <energy>
    <i name="alphaZ">      0.51957394 </i>
    <i name="ewald">   6067.79762051 </i>
    <i name="hartreedc">  -8071.97189886 </i>
    <i name="XCdc">    214.12937597 </i>
    <i name="pawpsdc">   4793.47237971 </i>
    <i name="pawaedc">  -4804.69245487 </i>
    <i name="eentropy">      0.000000  <structure>
   <crystal>  <structure>
   <crystal>
    <varray name="basis" >
     <v>      30.0000000  <structure>
   <crystal>  <structure>
   <crystal>  <structure>
   <crystal>
    <varray name="basis" >
     <v>      30.00000000       0.00000000       0  <structure>
   <crystal>
    <varray name="basis" >
     <v>      30.00000000       0.00000000       0.00000000 </v>
     <v>       0.00000000      30.00000000       0.00000000 </v>
     <v>       0.00000000       0.00000000      30.00000000 </v>
    </varray>
    <i name="volume">  27000.00000000 </i>
    <varray name="rec_basis" >
     <v>       0.03333333       0.00000000       0.00000000 </v>
     <v>       0.00000000       0.03333333       0.00000000 </v>
     <v>       0.00000000       0.00000000       0.03333333 </v>
    </varray>
   </crystal>
   <varray name="positions" >
    <v>       0.37689388       0.53998262       0.51356174 </v>
    <v>       0.38451056       0.49657692       0.47310538 </v>
    <v>       0.37585320       0.48294944       0.53022678 </v>
    <v>       0.45126547       0.45144631       0.48039466 </v>
    <v>       0.51577303       0.47981585       0.54629066 </v>
    <v>       0.56061961       0.41579877       0.51569280 </v>
    <v>       0.52287922       0.41044480       0.47088093 </v>
    <v>       0.50425123       0.39931227       0.52678557 </v>
    <v>       0.51975722       0.55163871       0.51866905 </v>
    <v>       0.61105549       0.56320407       0.48579290 </v>
    <v>       0.57202623       0.58009233       0.44446418 </v>
    <v>       0.57186520       0.60634814       0.49816966 </v>
    <v>       0.39157590       0.50710713       0.50746304 </v>
    <v>       0.44114978       0.50932355       0.51619194 </v>
    <v>       0.51293154       0.46918381       0.51119554 </v>
    <v>       0.52568810       0.42054602       0.50598989 </v>
    <v>       0.54529891       0.49936698       0.48416424 </v>
    <v>       0.57660750       0.57471326       0.48046283 </v>
    <v>       0.46605302       0.47548132       0.49933668 </v>
    <v>       0.54535061       0.54226877       0.49791502 </v>
    <v>       0.45840384       0.53989453       0.53852632 </v>
    <v>       0.57018900       0.48450244       0.45471758 </v>
   </varray>
  </structure>
  <varray name="forces" >
   <v>       0.00639939      -0.00613060      -0.02696073 </v>
   <v>      -0.06640810      -0.01369678      -0.03178539 </v>
   <v>       0.02771727       0.02020821      -0.01641221 </v>
   <v>       0.02872530       0.10544012       0.06036033 </v>
   <v>       0.01941350      -0.06307630       0.01017438 </v>
   <v>      -0.01063716      -0.05714361       0.01212219 </v>
   <v>       0.02215052      -0.04894417      -0.01326044 </v>
   <v>       0.02337422      -0.02148545       0.00679782 </v>
   <v>       0.04410782      -0.00089678       0.03008533 </v>
   <v>      -0.02279956       0.00803810      -0.04346980 </v>
   <v>       0.00376985       0.01721070      -0.02550192 </v>
   <v>      -0.01624770       0.00697113      -0.02190980 </v>
   <v>      -0.00317583       0.00012986      -0.02668473 </v>
   <v>       0.06983613       0.24238222       0.17943175 </v>
   <v>       0.03142574       0.02303793       0.03984005 </v>
   <v>      -0.00622141      -0.02728823      -0.03165756 </v>
   <v>       0.09560343      -0.11265637      -0.09070841 </v>
   <v>      -0.00990858       0.00666036      -0.02737646 </v>
   <v>       0.00027898      -0.08679376      -0.12900439 </v>
   <v>      -0.05053391       0.10297682       0.08098547 </v>
   <v>      -0.12101043      -0.13168861      -0.03628757 </v>
   <v>      -0.06585947       0.03674521    <energy>
   <i name="e_fr_energy">   -129.41379002 </i>
   <i   <i name="e_fr_energy">   -129.44502040 </i>
   <i name="e_wo_entrp">   -129.44502040 </i>
   <i   <time name="totalsc"> 2143.22 2141.51</time>
 </ca  <time name="totalsc"> 2143.22 2142.29</time>
 </calculation>
44</time>
 </calculation>
39</time>
 </calculation>
e="totalsc"> 21  <time name="totalsc"> 21  <time name="totalsc"> 21  <time name="totalsc"> 2141.52 2140.20</time>
 </calculation>
90</time>
 </ca  <time name="totalsc"> 21  <time name="totalsc"> 21   <time name="dav">  269.55  269.41</time>
   <time name="total">  309.05  308.89</time>
   <energy>
    <i name="alphaZ">      0.51957394 </i>
    <i name="ewald">   6049.47262409 </i>
    <i name="hartreedc">  -8052.98885013 </i>
    <i name="XCdc">    214.01068247 </i>
       <time name="total">  313.19  313.12</time>
   <energy>
    <i name="alphaZ"   <time name="total">  314.02  316.50</time>
   <energy>
    <i name="alphaZ">      0.51957394 </i>
    <i name="ewald">   6064.75404603 </i>
    <i name="hartreedc">  -8068.65810203 </i>
    <i name="XCdc">    214.11047109 </i>
    <i name="pawpsdc">   4792.05953101 </i>
    <i name="pawaedc">  -4803.28088988 <   <time name="dav">  320.51  320.25</time>
   <time name="total">  365.07  364.77</time>
   <energy>
    <i name="e_fr_energy">   -129.28585851 </i>
    <i name="e_wo_entrp">   -129.28585851 </i>
    <i name="e_0_energy">   -129.28585851 </i>
   </energy>
  </scstep>
  <scstep>
   <time name="dav">  240.44  240.24</time>
   <time name="total">  282.95  282.72</time>
   <energy>
    <i name="e_fr_energy">   -129.28586329 </i>
    <i name="e_wo_entrp">   -129.28586329 </i>
    <i name="e_0_energy">   -129.28586329 </i>
   </ene   <time name="total">  307.   <time name="dav">  237.43  237.23</time>
   <time name="total">  283.10  282.87</time>
   <energy>
    <i name="e_fr_energy">   -129.28590387 </i   <time name="total">  290.67  290.44</time>
   <energy>
    <i name="e_fr_energy">   -129.19776785 </i>
    <i name="e_wo_entrp">    <time name="dav">  240.14  239.95</time>
   <time name="total">  283.90  283.67</time>
   <energy>
    <i name="e_fr_energy">   -129.28590635 </i>
    <i name="e_wo_entrp">   -129.28590635 </i>
    <i name   <time name="dav">  258.38  258.17</time>
   <time name="total">  301.   <time name="dav">  197.54  197.38</time>
   <time name="total">  218.05  217.88</time>
   <energy>
     <time name="dav">  238.15  237.95</time>
   <time name="total">  258.14  257.93</time>
   <energy>
     <time name="dav">  227.50  227.31</time>
   <time name="total">  249.86  24   <time name="dav">  237.70  237.70</time>
   <time name="total">  264.24  264.26</time>
   <energy>
    <i name="alphaZ">      0.51957394 </i>
    <i name="ewald">   6067.40823540 </i>
    <i name="hartreedc">  -8071.51980575 </i>
    <i name="XCdc">    214.13436175 </i>
    <i name="pawpsdc">   4794.93614185 </i>
    <i name="pawaedc">  -4806.15851495 </i>
    <i name  <structure>
   <crystal>
    <varray name="basis" >
     <v>      30.00000000       0.00000000       0  <structure>
   <crystal>
    <varray name="basis" >
     <v>      30.00000000       0.00000000       0  <structure>
   <crystal>
    <varray name="basis" >
     <v>      30.0000000  <structure>
   <crystal>
    <varray name="basis" >
     <v>      30.00000000       0.00000000       0.00000000 </v>
     <v>       0.00000000      30.00000000       0.00000000 </v>
     <v>       0.00000000       0.00000000      30.00000000 </v>
    </varray>
    <i name="volume">  27000.00000000 </i>
    <varray name="rec_basis" >
     <v>       0.03333333       0.00000000       0.00000000 </v>
     <v>       0.00000000       0.03333333       0.00000000 </v>
     <v>       0.00000000       0.00000000       0.03333333 </v>
    </varray>
   </crystal>
   <varray name="positions" >
    <v>       0.37689325       0.53998599       0.51354456 </v>
    <v>       0.38444054       0.49657023       0.47307926 </v>
    <v>       0.37588591       0.48296932       0.53021414 </v>
    <v>       0.45125998       0.45149703       0.48041095 </v>
    <v>       0.51579586       0.47976757       0.54632094 </v>
    <v>       0.56061367       0.41573296       0.51573128 </v>
    <v>       0.52290308       0.41038331       0.47087425 </v>
    <v>       0.50427031       0.39928796       0.52682125 </v>
    <v>       0.51977448       0.55166074       0.51872095 </v>
    <v>       0.61103509       0.56320670       0.48572024 </v>
    <v>       0.57202599       0.58010779       0.44440746 </v>
    <v>       0.57185311       0.60636546       0.49812430 </v>
    <v>       0.39158376       0.50710967       0.50742435 </v>
    <v>       0.44117398       0.50937816       0.51628543 </v>
    <v>       0.51295310       0.46919952       0.51120706 </v>
    <v>       0.52568577       0.42052490       0.50598444 </v>
    <v>       0.54534034       0.49934706       0.48415773 </v>
    <v>       0.57658353       0.57471572       0.48041496 </v>
    <v>       0.46607119       0.47552223       0.49928577 </v>
    <v>       0.54533577       0.54228559       0.49793622 </v>
    <v>       0.45835117       0.53988548       0.53857616 </v>
    <v>       0.57016864       0.48449463       0.45475570 </v>
   </varray>
  </structure>
  <varray name="forces" >
   <v>       0.00448464      -0.01158586      -0.02934425 </v>
   <v>      -0.04554852      -0.01156451      -0.02499295 </v>
   <v>       0.02023428       0.01634667      -0.01322934 </v>
   <v>       0.01132765       0.07873174       0.03907589 </v>
   <v>       0.01681090      -0.05668761       0.00606256 </v>
   <v>      -0.01932695      -0.04935032       0.00514706 </v>
   <v>       0.01855541      -0.04146066      -0.00201580 </v>
   <v>       0.02201099      -0.01239991      -0.00514756 </v>
   <v>       0.04631812      -0.00454684       0.02469163 </v>
   <v>      -0.02197768       0.00867427      -0.03926190 </v>
   <v>      -0.00623271       0.01179054      -0.01804372 </v>
   <v>      -0.01142319      -0.00099899      -0.02905339 </v>
   <v>      -0.00063348       0.01879850      -0.00180576 </v>
   <v>      -0.01153847       0.07384533       0.01076983 </v>
   <v>       0.02036646      -0.02201853       0.01987687 </v>
   <v>       0.00135383      -0.02698115      -0.01655399 </v>
   <v>      -0.00760201      -0.03700719       0.03174196 </v>
   <v>      -0.01220017       0.02231294      -0.01378307 </v>
   <v>       0.02691760      -0.00961613      -0.05384992 </v>
   <v>      -0.02276750       0.07357696       0.04189797 </v>
   <v>      -0.04713699      -0.02019084       0.06128375 </v>
   <v>       0.0  <energy>
   <i name="e_f  <energy>
   <i name="e_fr_energy">   -129.15029074 </i>
   <i name="e_wo_entrp">   -129.15029074 </i>
   <i name="e_0_energy">      0.  <time name="totalsc"> 22  <time name="totalsc"> 2222.27 2220.84</time>
 </calculation>
e="totalsc"> 2222.28 2220.64</time>
 </ca  <time name="totalsc"> 2222.04 2220.66</time>
 </calculation>
53</time>
 </calculation>
e="totalsc"> 2220.81 2219.07</time>
 </ca  <time name="totalsc"> 22  <time name="totalsc"> 2218.79 2219.24</time>
 </calculation>
11</time>
 </calculation>
e="totalsc"> 22   <time name="dav">  257.   <time name="dav   <time name="total">  29   <time name="total">  301.58  301.34</time>
   <en   <time name="total">  318.51  318.25</time>
   <energy>
    <i name="alphaZ">      0.51957394 </i>
    <i name="ewald">   6121.59714015 </i>
    <i name="   <time name="total">  330.75  330.48</time>
   <energy>
    <i name="alphaZ">      0.51957394 </i>
    <i name="ewald">   6064.65554013 </i>
    <i name="hartreedc">  -8068.57330902 </i>
    <i name="XCdc">    214.10890764 </i>
    <i name="pawpsdc">   4791.99884590 </i>
    <i name="pawaedc">  -4803.22021091 </i>
    <i name="eentropy">      0.00000000 </i>
    <i name="bandstr">   -754   <time name="dav">  292.03  291.79</time>
   <time name="total">  332.38  332.11</time>
   <en   <time   <time name="dav">  304.98  304.74</time>
   <time name="total">  351.67  351.39</time>
   <en   <time name="total">  358.91  358.62</time>
   <energy>
    <i name="e_fr_ener   <time name="dav">  290.51  290.27</time>
   <time name="total">  332.53  332.26</time>
   <energy>
    <i name="e_fr_energy">   -129.20084994 </i>
    <i   <time name="dav">  289.   <time name="dav   <time name="total">  33   <time name="total">  353.36  353.19</time>
   <ener   <time name="dav">  241.46  241.26</time>
   <time name="total">  285.30  285.07</time>
   <energy>
    <i name="e_fr_energy">   -129.20090737 </i>
    <i   <time name="dav">  237.   <time name="dav   <time name="total">  28   <time name="total">  283.72  283.49</time>
   <ener   <time name="dav">  227.97  227.78</time>
   <time name="total">  270.21  270.00</time>
   <energy>
    <i name="e_fr_energy">   -129.20091713 </i>
    <i name="e_wo_entrp">   -129   <time name="dav">  237.06  236.87</time>
   <time name="total">  280.61  280.38</time>
   <ener   <time name="dav">  262.13  261.91</time>
   <time name="total">  285.84  285.61</time>
   <energy>
    <i name="alphaZ">      0.51957394 </i>
    <i name="ewald">   6030.69647628    <time name="dav">  230.49  230.30</time>
   <time name="total">  255.06  254.86</time>
   <energy>
    <i name="alph   <time name="dav">  254.25  254.04</time>
   <time name="total">  284.07  283.84</time>
   <energy>
    <i name="alphaZ">      0.51957394 </i>
    <i name="ewald">   6034.05055426 </i>
    <i name="hartreedc">  -8038.01177094 </i>
    <i name="XCdc">    214.00178540 </i>
    <i name="pawpsdc">   4746.36321988 </i>
    <i name="pawaedc">  -4757.56609408 <  <structure>
   <crystal>
    <varray name="basis" >
     <v>      30.00000000       0.00000000       0.00000000 </v>
     <v>       0.00000000      30.00000000       0.00000000 </v  <structure>
   <crystal>
    <varray name="basis" >
     <v>      30.00000000       0.00000000       0.00000000 </v>
  <structure>
   <crystal>
    <varray name="basis" >
     <v>      30.00000000       0.00000000       0.00000000 </v>
     <v>       0.00000000      30.00000000       0.00000000 </v>
     <v>       0.00000000       0.00000000      30.00000000 </v>
    </varray>
    <i name="volume">  27000.00000000 </i>
    <varray name="rec_basis" >
     <v>       0.03333333       0.00000000       0.00000000 </v>
     <v>       0.00000000       0.03333333       0.00000000 </v>
     <v>       0.00000000       0.00000000       0.03333333 </v>
    </varray>
   </crystal>
   <varray name="positions" >
    <v>       0.37488821       0.53556366       0.49752571 </v>
    <v>       0.38074210       0.47922568       0.47943461 </v>
    <v>       0.37914413       0.49159027       0.53743455 </v>
    <v>       0.44885366       0.44787807       0.52177970 </v>
    <v>       0.52322431       0.44920780       0.54393913 </v>
    <v>       0.55607610       0.41539247       0.47779918 </v>
    <v>       0.51443517       0.43878737       0.44252918 </v>
    <v>       0.49921201       0.39847959       0.48378723 </v>
    <v>       0.51056852       0.55237009       0.50796789 </v>
    <v>       0.60514652       0.57559308       0.52377296 </v>
    <v>       0.59138198       0.57212624       0.46626533 </v>
    <v>       0.56121621       0.60935596       0.50176670 </v>
    <v>       0.39104401       0.50360576       0.50483618 </v>
    <v>       0.44120361       0.51166717       0.50395349 </v>
    <v>       0.51509485       0.46404562       0.51123252 </v>
    <v>       0.52135686       0.42685053       0.47651737 </v>
    <v>       0.55258410       0.49925431       0.50454514 </v>
    <v>       0.57735962       0.57657374       0.49990098 </v>
    <v>       0.46693006       0.47560284       0.51421864 </v>
    <v>       0.54373498       0.54298699       0.50969612 </v>
    <v>       0.45541855       0.54941873       0.49439833 </v>
    <v>       0.59038437       0.48442511       0.49670103 </v>
   </varray>
  </structure>
  <varray name="forces" >
   <v>      -0.01264077      -0.05236462       0.02717359 </v>
   <v>       0.06269976      -0.02700724       0.00197088 </v>
   <v>       0.08944436      -0.01372739      -0.01387611 </v>
   <v>      -0.05414005       0.01721711      -0.02021552 </v>
   <v>       0.03309573       0.07448403       0.05383698 </v>
   <v>      -0.04699734       0.00194573      -0.01245697 </v>
   <v>      -0.04308581       0.03223659       0.05132210 </v>
   <v>      -0.00194046       0.02255790      -0.01082515 </v>
   <v>      -0.05235383      -0.04022747      -0.05785657 </v>
   <v>      -0.02405864      -0.07003093       0.03177050 </v>
   <v>       0.01995801      -0.03469214       0.00427816 </v>
   <v>       0.03838349       0.00632071       0.01754123 </v>
   <v>       0.00634005       0.01524183       0.04825693 </v>
   <v>      -0.03912508       0.02544053      -0.02429146 </v>
   <v>       0.01684242      -0.07046214      -0.08417278 </v>
   <v>      -0.02365559      -0.00401966      -0.01180254 </v>
   <v>       0.05478414       0.08522676       0.00294850 </v>
   <v>      -0.05087429      -0.00854416       0.01106247 </v>
   <v>      -0.01562909       0.00317785      -0.00824531 </v>
   <v>      -0.02584969       0.01813078      -0.05816121 </v>
   <v>       0.04354258      -0.00995217      -0.01831312 </v>
   <energy>
   <i name="e_fr_energy">   -129.20091993 </i>
   <i name="e_wo_entrp">   -129   <i name="e_fr_energy">   -129.43000546 </i>
   <i name="e_wo_entrp">    <time name="totalsc"> 22  <time name="totalsc"> 2258.78 2257.09</time>
 </ca  <time name="totalsc"> 22  <time name="totalsc"> 2259.04 2257.23</time>
 </ca  <time name="totalsc"> 22  <time name="totalsc"> 22  <time name="totalsc"> 22  <time name="totalsc"> 2260.41 2259.55</time>
 </calculation>
> 2257.01 2255.43</time>
 </ca  <time name="totalsc"> 2261.01 2259.55</time>
 </calculation>
   <time name="dav">  257.   <time name="dav   <time name="total">  29   <time name="total">  29   <time name="total">  30   <time name="total">  302.52  302.28</time>
   <en   <time name="total">  321.00  320.82</time>
   <energy>
    <i name="alphaZ">      0.51957394 </i>
    <i name   <time name="dav">  292.65  292.60</time>
   <time name="total">  340.46  340.37</time>
   <energy>
    <i name="alphaZ">      0.51957394 </i>
    <i name="ewald">   6064.47952050 </i>
    <i name="hartreedc">  -8068.41991161 </i>
    <i name="XCdc">    214.10619433 </i>
    <i name="pawpsdc">   4791.77520098 </i>
    <i name="pawaedc">  -4802.99646283 </i>
    <i name="eentropy"   <time name="dav">  300.05  299.81</time>
   <time name="total">  341.35  341.07</time>
   <energy>
    <i name="e_fr_energy">   -129.15772467 </i>
    <i name="e_wo_entrp">   -129.15772467 </i>
    <i name="e_0_energy">   -   <time name="total">  333.81  333.54</time>
   <en     <time name="dav">  272.30  272.08</time>
   <time name="total">  312.82  312.57</time>
   <en   <time name="total">  332.33  332.06</time>
   <en   <time name="total">  347.83  347.55</time>
   <energy>
     <time name="dav">  325.   <time name="dav   <time name="total">  36     <time name="dav">  257.85  257.64</time>
   <time name="total">  299.30  299.11</time>
   <energy>
     <time name="dav">  257.61  257.40</time>
   <time name="total">  299.99  299.75</time>
   <energy>
    <i name="e_fr_energy">     <time name="dav">  261.65  261.44</time>
     <time name="dav">  217.63  217.45</time>
   <time   <time name="dav">  254.97  254.76</time>
   <time name="total">  294.83  294.59</time>
   <en   <time name="total">  259.19  258.98</time>
   <energy>
     <time name="dav">  239.   <time name="dav">  242.99  242.80</time>
     <time name="dav">  193.51  193.35</time>
   <time   <time name="dav">  244.54  244.34</time>
   <time name="total">  266.68  266.47</time>
   <energy>
    <i name="alphaZ">      0.51957394 </i>
    <i name   <time name="dav">  225.   <time name="dav">  211.00  210.83</time>
   <time name="total">  234.55  234.36</time>
   <energy>
    <i name="alphaZ">      0.51957394 </i>
    <i name="ewald">   6061.93204362 </i>
    <i name="hartreedc">  -8066.23982996 </i>
    <i name="XCdc">    214.10258888 </i>
    <i name="pawpsdc">   4785.90996649 </i>
    <i name="pawaedc">  -4797.12697019 </i>
    <i name="eentropy">      0.00000000 </i>
    <i name="bands  <structure>
   <crystal>
    <varray name="basis"   <structure>
   <crystal>
    <varray name="basis" >
     <v>      30.00000000       0.00000000       0.00000000 </v>
     <v>       0.00000000      30.000  <structure>
   <crystal>  <structure>
   <crystal>
    <varray name="basis" >
     <v>      30.00000000       0.00000000       0.00000000 </v>
     <v>       0.00000000      30.00000000       0.00000000 </v>
     <v>       0.00000000       0.00000000      30.00000000 </v>
    </varray>
    <i name="volume">  27000.00000000 </i>
    <varray name="rec_basis" >
     <v>       0.03333333       0.00000000       0.00000000 </v>
     <v>       0.00000000       0.03333333       0.00000000 </v>
     <v>       0.00000000       0.00000000       0.03333333 </v>
    </varray>
   </crystal>
   <varray name="positions" >
    <v>       0.37573024       0.53892606       0.50865595 </v>
    <v>       0.38304368       0.49305737       0.47095909 </v>
    <v>       0.37558112       0.48319124       0.52904194 </v>
    <v>       0.44989152       0.45033469       0.47930072 </v>
    <v>       0.51519706       0.47277108       0.54393728 </v>
    <v>       0.56146113       0.41603318       0.50246074 </v>
    <v>       0.52179547       0.41509081       0.45917489 </v>
    <v>       0.50642300       0.39612212       0.51402137 </v>
    <v>       0.51759483       0.54990770       0.52394226 </v>
    <v>       0.61193342       0.56494921       0.50290182 </v>
    <v>       0.57776167       0.58404313       0.45845451 </v>
    <v>       0.57051155       0.60634294       0.51354835 </v>
    <v>       0.39068789       0.50585544       0.50436011 </v>
    <v>       0.44029886       0.50895856       0.51315176 </v>
    <v>       0.51249235       0.46798853       0.50753177 </v>
    <v>       0.52594267       0.42075502       0.49514051 </v>
    <v>       0.54574913       0.50161688       0.48597209 </v>
    <v>       0.57805879       0.57616937       0.49424901 </v>
    <v>       0.46560992       0.47557013       0.49574836 </v>
    <v>       0.54566387       0.54226772       0.50559188 </v>
    <v>       0.45664749       0.53969250       0.53571066 </v>
    <v>       0.57192875       0.49036209       0.45614561 </v>
   </varray>
  </structure>
  <varray name="forces" >
   <v>       0.01915628      -0.02512411      -0.02731596 </v>
   <v>      -0.01227667      -0.02955990      -0.05884300 </v>
   <v>      -0.00472247       0.03175920      -0.03611822 </v>
   <v>       0.04617089       0.11623895      -0.02243912 </v>
   <v>      -0.00494100      -0.00858314      -0.00661734 </v>
   <v>      -0.02822989      -0.06695659       0.01243774 </v>
   <v>      -0.00272900      -0.00950469      -0.00481976 </v>
   <v>      -0.01712582       0.00044594      -0.01644493 </v>
   <v>       0.12755083      -0.03549564       0.03832390 </v>
   <v>      -0.01440189      -0.00651518      -0.03700551 </v>
   <v>      -0.01276484       0.02761694      -0.05059598 </v>
   <v>       0.00754741      -0.00452844      -0.05949646 </v>
   <v>      -0.00403622       0.02724521       0.10896490 </v>
   <v>      -0.01554319       0.02062736      -0.01587134 </v>
   <v>       0.00572995       0.00845967       0.02787091 </v>
   <v>       0.00434589      -0.03169571       0.02957168 </v>
   <v>       0.02394660       0.03631785       0.03541331 </v>
   <v>       0.00889582       0.08964954       0.00837734 </v>
   <v>       0.01721933      -0.06877376      -0.05351495 </v>
   <v>      -0.16501278      -0.03949171       0.02499250 </v>
   <v>      -0.02511543      -0.04226709       0.07565667 </v>
   <v>       0.04633621       0.01013530       0.02747361 </v>
  </v  <energy>
   <i name="e_f  <energy>
   <i name="e_fr_energy">   -129.41673999  <energy>
   <i name="e_f  <energy>
   <i name="e_fr_energy">   -129.22962233 </i>
  <time name="totalsc"> 2213.89 2212.16</time>
 </ca  <time name="totalsc"> 2214.00 2212.23</time>
 </ca  <time name="totalsc"> 2213.96 2212.19</time>
 </calculation>
03</time>
 </calculation>
99</time>
 </ca  <time name="totalsc"> 22  <time name="totalsc"> 22  <time name="totalsc"> 2210.34 2209.88</time>
 </ca  <time name="totalsc"> 22  <time name="totalsc"> 22   <time name="dav">  255.   <time name="dav   <time name="total">  29   <time name="total">  297.64  297.39</time>
   <en   <time name="total">  311.52  311.27</time>
   <en   <time name="total">  313.64  313.39</time>
   <energy>
    <i name="alphaZ"   <time name="total">  316.50  316.25</time>
   <energy>
    <i name="alphaZ">      0.51957394 </i>
    <i name="ewald">   6122.4   <time name="total">  320.33  320.07</time>
   <energy>
    <i name="alphaZ">      0.51957394 </i>
    <i name="ewald">   6065.59343064 </i>
    <i name="hartreedc">  -8069.43990076 </i>
    <i name="XCdc">    214.07848303 </i>
    <i name="pawpsdc">   4786.81022480 </i>
    <i name="p   <time name="dav">  268.   <time name="dav   <time name="total">  31   <time name="total">  32   <time   <time name="dav">  306.18  305.93</time>
   <time name="total">  347.73  347.45</time>
   <energy>
    <i name="e_fr_energy">   -129.51452541 </i>
    <i name="e_wo_entrp">    <time name="dav">  270.82  270.60</time>
   <time name="total">  310.05  310.02</time>
   <en   <time name="total">  308.83  308.58</time>
   <energy>
     <time name="dav">  290.69  290.46</time>
   <time name="total">  330.70  330.44</time>
   <energy>
     <time name="dav">   <time name="dav">  284.71  284.48</time>
   <time name="total">  326.50  326.24</time>
   <energy>
    <i name="e_fr_energy">   -129.12371391 </i>
    <i   <time name="dav">  259.55  259.34</time>
   <time name="total">  301.68  301.44</time>
   <energy>
     <time name="dav">   <time name="dav">  210.76  210.59</time>
   <time   <time name="dav">  245.99  245.79</time>
   <time name="total">  287.28  287.04</time>
   <energy>
    <i name="e_fr_energy">   -129.16020875 </i   <time name="total">  253.23  253.03</time>
   <energy>
     <time name="dav">   <time name="dav">  261.15  260.93</time>
   <time name="total">  283.15  282.92</time>
   <energy>
    <i name="alphaZ">      0.51957394 </i>
    <i name   <time name="dav">  238.77  238.58</time>
   <time name="total">  262.10  261.89</time>
   <energy>
     <time name="dav">  221.   <time name="dav">  214.54  214.37</time>
   <time name="total">  238.38  238.19</time>
   <energy>
    <i name="alphaZ">      0.51957394 </i>
    <i name="ewald">   6060.33906238 </i>
    <i name="hartreedc">  -8064.65529206 </i>
    <i name="XCdc">    214.10164857 </i>
    <i name="pawpsdc">   4785.13189354 </i>
    <i name="pawaedc">  -4796.34988960 </i>
    <i name  <structure>
   <crystal>
    <varray name="basis"   <structure>
   <crystal>
    <varray name="basis" >
     <v>      30.00000000       0.00000000       0  <structure>
   <crystal>
    <varray name="basis" >
     <v>      30.00000000       0.00000000       0  <structure>
   <crystal>  <structure>
   <crystal>
    <varray name="basis" >
     <v>      30.00000000       0.00000000       0.00000000 </v>
     <v>       0.00000000      30.00000000       0.00000000 </v>
     <v>       0.00000000       0.00000000      30.00000000 </v>
    </varray>
    <i name="volume">  27000.00000000 </i>
    <varray name="rec_basis" >
     <v>       0.03333333       0.00000000       0.00000000 </v>
     <v>       0.00000000       0.03333333       0.00000000 </v>
     <v>       0.00000000       0.00000000       0.03333333 </v>
    </varray>
   </crystal>
   <varray name="positions" >
    <v>       0.37575427       0.53892268       0.50865684 </v>
    <v>       0.38303515       0.49309724       0.47092824 </v>
    <v>       0.37551349       0.48318571       0.52898969 </v>
    <v>       0.44992254       0.45055596       0.47907684 </v>
    <v>       0.51512829       0.47280465       0.54393698 </v>
    <v>       0.56145286       0.41586058       0.50256959 </v>
    <v>       0.52177739       0.41506565       0.45927054 </v>
    <v>       0.50641288       0.39607430       0.51410792 </v>
    <v>       0.51775582       0.54983662       0.52418295 </v>
    <v>       0.61184957       0.56490022       0.50275200 </v>
    <v>       0.57775879       0.58411086       0.45833808 </v>
    <v>       0.57053152       0.60641013       0.51342231 </v>
    <v>       0.39069712       0.50585258       0.50433998 </v>
    <v>       0.44030537       0.50894572       0.51323769 </v>
    <v>       0.51252777       0.46798925       0.50754978 </v>
    <v>       0.52594048       0.42071167       0.49523211 </v>
    <v>       0.54579438       0.50161880       0.48597201 </v>
    <v>       0.57803717       0.57623630       0.49411637 </v>
    <v>       0.46564711       0.47558447       0.49566506 </v>
    <v>       0.54555168       0.54231127       0.50549731 </v>
    <v>       0.45660102       0.53951315       0.53598204 </v>
    <v>       0.57200973       0.49041795       0.45617642 </v>
   </varray>
  </structure>
  <varray name="forces" >
   <v>       0.01555493      -0.01906326      -0.02740470 </v>
   <v>      -0.00376650      -0.02999763      -0.06111085 </v>
   <v>       0.00465298       0.03731626      -0.04095241 </v>
   <v>       0.01361172       0.03234518      -0.07104566 </v>
   <v>       0.00045762      -0.00301558       0.00949128 </v>
   <v>      -0.03786816      -0.04953440       0.00662628 </v>
   <v>       0.00026450      -0.01732866      -0.01011895 </v>
   <v>      -0.02460724       0.01229200      -0.01943921 </v>
   <v>       0.07171693      -0.01650794       0.05373142 </v>
   <v>       0.00826208      -0.00502824      -0.03026313 </v>
   <v>      -0.02313533       0.02324836      -0.06022904 </v>
   <v>       0.00704922      -0.00352742      -0.05580858 </v>
   <v>      -0.00963543       0.02728108       0.12092252 </v>
   <v>      -0.02137117      -0.07981873      -0.07627555 </v>
   <v>      -0.01206319      -0.01576288      -0.00061382 </v>
   <v>       0.01946812      -0.03225926       0.03244313 </v>
   <v>      -0.01639895       0.04153509       0.06596954 </v>
   <v>      -0.05200116       0.03961448       0.04379481 </v>
   <v>       0.04653141       0.06943448       0.03372370 </v>
   <v>      -0.04356328      -0.00538329      -0.02986464 </v>
   <v>       0.00010423      -0.00107590       0.10565947 </v>
   <v>       0.0  <energy>
   <i name="e_f  <energy>
   <i name="e_fr_energy">   -129.41798980  <energy>
   <i name="e_f  <energy>
   <i name="e_fr_energy">    <i name="e_fr_ener  <time name="totalsc"> 22  <time name="totalsc"> 22  <time name="totalsc"> 2245.94 2244.16</time>
 </ca  <time name="totalsc"> 2244.80 2244.14</time>
 </calculation>
e="totalsc"> 2245.83 2244.04</time>
 </calculation>
e="totalsc"> 22  <time name="totalsc"> 2245.60 2243.94</time>
 </calculation>
06</time>
 </ca  <time name="totalsc"> 2245.03 2243.44</time>
 </ca  <time name="totalsc"> 22   <time name="dav">  253.   <time name="dav   <time   <time name="dav">  291.70  291.47</time>
   <time name="total">  337.13  336.86</time>
   <energy>
    <i name="alphaZ">      0.51957394 </i>
    <i name="ewald">   6063.94254503 </i>
    <i name="hartreedc">  -8067.92485625 </i>
    <i name="XCdc">    214.09754789 </i>
    <i n   <time name="total">  339.58  339.30</time>
   <energy>
    <i name="alphaZ">      0.51957394 </i>
    <i name="ewald">   6065.72152802 </i>
    <i name="hartreedc">  -8069.54736124 </i>
    <i name="XCdc">    214.08046383 </i>
    <i name="pawpsdc">   4787.08560261 </i>
    <i name="pawaedc">  -4798.30359415 </i>
    <i name="eentr   <time name="dav">  284.   <time name="dav   <time name="total">  32   <time name="total">  327.81  327.54</time>
   <en   <time name="total">  340.69  340.41</time>
   <energy>
    <i name="e_fr_energy">   -129.46467795 </i>
    <i name="e_wo_entrp">   -129.46467795 </i>
    <   <time name="dav">  307.40  307.15</time>
   <time name="total">  348.92  34   <time name="dav">  341.54  341.26</time>
   <time name="total">  383.10  382.79</time>
   <energy>
    <i name="e_fr_energy">   -129.46458924 </i>
    <i name="e_wo_entrp">   -129.46458924 </i>
    <   <time name="dav">  223.85  223.67</time>
   <time name="total">  264.92  26   <time name="dav">  296.16  295.92</time>
   <time name="total">  340.46  340.18</time>
   <energy>
    <i name="e_fr_energy">   -129.46483279 </i>
    <i name="e_wo_entrp">   -129.46483279 </i>
    <   <time name="dav">  251.94  251.73</time>
   <time name="total">  291.24  29   <time name="dav">  247.   <time name="dav   <time name="total">  28   <time name="total">  342.03  341.75</time>
   <energy>
    <i name="e_fr_energy">   -129.30144449 </i>
    <i name="e_wo_entrp">    <time name="dav">  201.56  201.40</time>
   <time name="total">  224.00  22   <time name="dav">  240.   <time name="dav">  240.74  240.55</time>
   <time name="total">  264.36  264.15</time>
   <energy>
    <i name="alphaZ">      0.51957394 </i>
    <i name="ewald">   6053.00292105 </i>
    <i name="hartreedc">  -8056.50858807 </i>
    <i name="XCdc">    214.00704114 </i>
    <i name="pawpsdc">   4757.96335084 </i>
    <i name="pawaedc">  -4769.17287996 </i>
    <i name="eentropy">      0.00000000 </i>
    <i name="bandstr">   -755.09620031 </i>
    <i name="atom">   2425.98333211 </i>
    <i name="e_fr_energy">   -129.30144926 </i>
    <i name="e_  <structure>
   <crystal>
    <varray name="basis" >
     <v>      30.0000000  <structure>
   <crystal>  <structure>
   <crystal>
    <varray name="basis" >
     <v>      30.00000000       0.00000000       0.00000000 </v>
     <v>       0.00000000      30.00000000       0.00000000 </v>
     <v>       0.00000000       0.00000000      30.00000000 </v>
    </varray>
    <i name="volume">  27000.00000000 </i>
    <varray name="rec_basis" >
     <v>       0.03333333       0.00000000       0.00000000 </v>
     <v>       0.00000000       0.03333333       0.00000000 </v>
     <v>       0.00000000       0.00000000       0.03333333 </v>
    </varray>
   </crystal>
   <varray name="positions" >
    <v>       0.37488023       0.53561548       0.50089174 </v>
    <v>       0.37848855       0.47897706       0.48339825 </v>
    <v>       0.38152486       0.49214383       0.54122383 </v>
    <v>       0.44798175       0.44898801       0.53003947 </v>
    <v>       0.52094393       0.44005742       0.53896395 </v>
    <v>       0.55568747       0.42464386       0.46623951 </v>
    <v>       0.51392995       0.45630355       0.43788887 </v>
    <v>       0.49926275       0.40638906       0.46687619 </v>
    <v>       0.51344141       0.54636604       0.48710007 </v>
    <v>       0.59028488       0.57700363       0.53680008 </v>
    <v>       0.60847297       0.56507357       0.48171615 </v>
    <v>       0.56474909       0.60468340       0.49038749 </v>
    <v>       0.39095785       0.50353066       0.50766509 </v>
    <v>       0.44092226       0.50900980       0.50147305 </v>
    <v>       0.51369456       0.46251134       0.51090562 </v>
    <v>       0.52088030       0.43603990       0.46762362 </v>
    <v>       0.55120523       0.49791644       0.51615620 </v>
    <v>       0.57896208       0.57306737       0.50209788 </v>
    <v>       0.46615795       0.47460922       0.51726045 </v>
    <v>       0.54501490       0.53884129       0.49876094 </v>
    <v>       0.45605440       0.54275571       0.48269599 </v>
    <v>       0.58650501       0.48547105       0.53382906 </v>
   </varray>
  </structure>
  <varray name="forces" >
   <v>       0.01225343      -0.01237918       0.01494606 </v>
   <v>      -0.03794121      -0.00120386       0.01039397 </v>
   <v>       0.06892947      -0.02326381      -0.00438919 </v>
   <v>       0.00999491       0.01171016       0.07103816 </v>
   <v>      -0.00596168      -0.00746636      -0.00246328 </v>
   <v>      -0.00852748       0.02042927      -0.02145824 </v>
   <v>      -0.01076151       0.03738457       0.03436066 </v>
   <v>      -0.01232828       0.02922437      -0.00609362 </v>
   <v>      -0.02425847       0.01764760       0.03267897 </v>
   <v>       0.00209882      -0.00992293      -0.02241006 </v>
   <v>      -0.03960436      -0.03505025       0.01470955 </v>
   <v>       0.01044831      -0.01201671       0.00843010 </v>
   <v>       0.01274665      -0.00007338      -0.00835500 </v>
   <v>       0.06248623       0.00296667      -0.04797937 </v>
   <v>       0.02336709      -0.01654903       0.03612646 </v>
   <v>       0.01139871       0.00534264      -0.02322706 </v>
   <v>      -0.00474775       0.02532087       0.00227837 </v>
   <v>       0.04890122       0.03294667       0.01825586 </v>
   <v>      -0.00602236       0.09307189      -0.02345649 </v>
   <v>      -0.06317347      -0.05604760       0.03450445 </v>
   <v>      -0.01107875      -0.09393585      -0.10411037 </v>
   <v>      -0.03821951      -0.00813575      -0.01377992 </v>
  </varray>
  <varray name="stress" >
   <v>      -0.24618764      -0.00103376       0.01352624 </v>
   <v>      -0.00103376      -0.23  <energy>
   <i name="e_f  <energy>
   <i name="e_f  <energy>
   <i name="e_fr_energy">   -129.52078515 </i>
   <i name="e_wo_entrp">   -129.52078515 </i>
   <i   <time name="totalsc"> 2308.77 2308.01</time>
 </ca  <time name="totalsc"> 2308.72 2309.69</time>
 </calculation>
e="totalsc"> 2306.29 2304.99</time>
 </calculation>
e="totalsc"> 2303.86 2302.01</  <time name="totalsc"> 2304.01 2302.17</time>
 </calculation>
</ca  <time name="totalsc"> 23  <time name="totalsc"> 23  <time name="totalsc"> 2306.83 2310.58</time>
 </ca   <time name="dav">  256.   <time name="dav   <time name="total">  30   <time name="total">  302.64  302.39</time>
   <en   <time name="total">  30   <time name="total">  312.87  312.62</time>
   <energy>
    <i name="alphaZ">      0.51957394 </i>
    <i name   <time name="dav   <time name="total">  31   <time name="total">  333.34  333.07</time>
   <en   <time name="total">  342.48  342.20</time>
   <energy>
    <i name="alphaZ">      0.51957394 </i>
    <i name="ewald">   6063.60700892 </i>
    <i name="hartreedc">  -8067.60486415 </i>
    <i name="XCdc">    214.09237054 </i>
    <i name="pawpsdc">   4789.84408247 </i>
    <i name="pawaedc">  -4801.06399139 <   <time name="dav">  268.   <time name="dav   <time name="total">  30   <time name="total">  327.89  327.62</time>
   <energy>
    <i name="e_fr_en   <time name="total">  324.34  324.14</time>
   <energy>
    <i name="e_fr_energy">   -129.43041529 </i>
    <i   <time name="dav">   <time name="dav">  289.   <time name="dav">  308.87  308.62</time>
   <time name="total">  350.67  350.39</time>
   <energy>
    <i name="e_fr_energy">   -129.21012169 </i>
    <i name="e_wo_entrp">   -129.21012169 </i>
    <i name   <time name="dav">  338.   <time name="dav">   <time name="dav">  265.   <time name="dav">  288.   <time name="dav   <time name="total">  32   <time name="total">  339.06  338.79</time>
   <energy>
    <i name="e_fr_energy">   -129.24863610 </i>
    <i name="e_wo_entrp">   -129   <time name="dav">  272.   <time name="dav">   <time name="dav">  203.   <time name="dav">  232.   <time name="dav">  253.21  253.00</time>
   <time name="total">  291.77  291.53</time>
   <energy>
    <i name="e_fr_energy">   -129.24867559 </i>
    <i name="e_wo_entrp">   -129.24867559 </i>
    <i name   <time name="dav">   <time name="dav">  236.   <time name="dav">  224.   <time name="dav">  224.48  224.30</time>
   <time name="total">  245.89  245.69</time>
   <energy>
    <i name="alphaZ">      0.51957394 </i>
    <i name   <time name="dav">  236.   <time name="dav">  231.   <time name="dav">  243.18  242.98</time>
   <time name="total">  268.19  267.97</time>
   <energy>
    <i name="alphaZ">      0.51957394 </i>
    <i name="ewald">   6060.59574594 </i>
    <i name="hartreedc">  -8064.57335033 </i>
    <i name="XCdc">    214.12624810 </i>
    <i name="pawpsdc">   4794.24374473 </i>
    <i name="pawaedc">  -4805.46828727 </i>
    <i name="eentropy">      0.000000  <structure>
   <crystal>  <structure>
   <crystal>  <structure>
   <crystal>
    <varray name="basis" >
     <v>      30.00000000       0.00000000       0.00000000 </v>
     <v>       0.00000000      30.000  <structure>
   <crystal>  <structure>
   <crystal>  <structure>
   <crystal>
    <varray name="basis" >
     <v>      30.00000000       0.00000000       0.00000000 </v>
     <v>       0.00000000      30.00000000       0.00000000 </v>
     <v>       0.00000000       0.00000000      30.00000000 </v>
    </varray>
    <i name="volume">  27000.00000000 </i>
    <varray name="rec_basis" >
     <v>       0.03333333       0.00000000       0.00000000 </v>
     <v>       0.00000000       0.03333333       0.00000000 </v>
     <v>       0.00000000       0.00000000       0.03333333 </v>
    </varray>
   </crystal>
   <varray name="positions" >
    <v>       0.37688276       0.54003919       0.51339785 </v>
    <v>       0.38408156       0.49657965       0.47299851 </v>
    <v>       0.37608236       0.48310601       0.53016310 </v>
    <v>       0.45126731       0.45201603       0.48056782 </v>
[...]
       <r>  -10.1251    1.0000 </r>
       <r>   -9.9796    1.0000 </r>
       <r>   -9.8950    1.0000 </r>
       <r>   -9.3829    1.0000 </r>
       <r>   -9.1672    1.0000 </r>
       <r>   -9.0044    1.0000 </r>
       <r>   -8.7052    1.0000 </r>
       <r>   -8.4790    1.0000 </r>
       <r>   -6.8002    1.0000 </r>
       <r>   -6.2125    1.0000 </r>
       <r>   -5.8351    1.0000 </r>
       <r>   -5.4237    1.0000 </r>
       <r>   -1.1786    0.0000 </r>
       <r>   -0.9828    0.0000 </r>
       <r>   -0.4389    0.0000 </r>
       <r>   -0.2987    0.0000 </r>
       <r>   -0.2114    0.0000 </r>
       <r>   -0.0560    0.0000 </r>
       <r>    0.0450    0.0000 </r>
       <r>    0.1155    0.0000 </r>
       <r>    0.1248    0.0000 </r>
       <r>    0.1479    0.0000 </r>
       <r>    0.1833    0.0000 </r>
       <r>    0.1973    0.0000 </r>
      </set>
      <set comment="kpoint 4">
       <r>  -26.2101    1.0000 </r>
       <r>  -25.5199    1.0000 </r>
       <r>  -23.4438    1.0000 </r>
       <r>  -22.6651    1.0000 </r>
       <r>  -19.5888    1.0000 </r>
       <r>  -18.2661    1.0000 </r>
       <r>  -17.3581    1.0000 </r>
       <r>  -16.1564    1.0000 </r>
       <r>  -14.7113    1.0000 </r>
       <r>  -13.9691    1.0000 </r>
       <r>  -13.2721    1.0000 </r>
       <r>  -12.5509    1.0000 </r>
       <r>  -11.5713    1.0000 </r>
       <r>  -11.3355    1.0000 </r>
       <r>  -10.8835    1.0000 </r>
       <r>  -10.7830    1.0000 </r>
       <r>  -10.3386    1.0000 </r>
       <r>  -10.1251    1.0000 </r>
       <r>   -9.9796    1.0000 </r>
       <r>   -9.8950    1.0000 </r>
       <r>   -9.3829    1.0000 </r>
       <r>   -9.1672    1.0000 </r>
       <r>   -9.0044    1.0000 </r>
       <r>   -8.7052    1.0000 </r>
       <r>   -8.4790    1.0000 </r>
       <r>   -6.8001    1.0000 </r>
       <r>   -6.2125    1.0000 </r>
       <r>   -5.8351    1.0000 </r>
       <r>   -5.4237    1.0000 </r>
       <r>   -1.1785    0.0000 </r>
       <r>   -0.9828    0.0000 </r>
       <r>   -0.4389    0.0000 </r>
       <r>   -0.2987    0.0000 </r>
       <r>   -0.2114    0.0000 </r>
       <r>   -0.0560    0.0000 </r>
       <r>    0.0449    0.0000 </r>
       <r>    0.1199    0.0000 </r>
       <r>    0.1323    0.0000 </r>
       <r>    0.1350    0.0000 </r>
       <r>    0.1770    0.0000 </r>
       <r>    0.1940    0.0000 </r>
      </set>
     </set>
    </set>
   </array>
  </eigenvalues>
  <separator name="orbital magnetization" >
   <v name="MAGDIPOLOUT">      0.00000000      0.00000000      0.00000000</v>
  </separator>
  <dos>
   <i name="efermi">     -4.49046161 </i>
   <total>
    <array>
     <dimension dim="1">gridpoints</dimension>
     <dimension dim="2">spin</dimension>
     <field>energy</field>
     <field>total</field>
     <field>integrated</field>
     <set>
      <set comment="spin 1">
       <r>   -28.2101     0.0000     0.0000 </r>
       <r>   -28.1088     0.0000     0.0000 </r>
       <r>   -28.0074     0.0000     0.0000 </r>
       <r>   -27.9061     0.0000     0.0000 </r>
       <r>   -27.8047     0.0000     0.0000 </r>
       <r>   -27.7033     0.0000     0.0000 </r>
       <r>   -27.6020     0.0000     0.0000 </r>
       <r>   -27.5006     0.0000     0.0000 </r>
       <r>   -27.3992     0.0000     0.0000 </r>
       <r>   -27.2979     0.0000     0.0000 </r>
       <r>   -27.1965     0.0000     0.0000 </r>
       <r>   -27.0952     0.0000     0.0000 </r>
       <r>   -26.9938     0.0000     0.0000 </r>
       <r>   -26.8924     0.0000     0.0000 </r>
       <r>   -26.7911     0.0004     0.0000 </r>
       <r>   -26.6897     0.0065     0.0007 </r>
       <r>   -26.5883     0.0670     0.0075 </r>
       <r>   -26.4870     0.4222     0.0503 </r>
       <r>   -26.3856     1.6219     0.2147 </r>
       <r>   -26.2843     3.8039     0.6003 </r>
       <r>   -26.1829     5.4513     1.1528 </r>
       <r>   -26.0815     4.7763     1.6370 </r>
       <r>   -25.9802     2.5677     1.8972 </r>
       <r>   -25.8788     0.9352     1.9920 </r>
       <r>   -25.7774     0.7338     2.0664 </r>
       <r>   -25.6761     2.0024     2.2694 </r>
       <r>   -25.5747     4.2331     2.6985 </r>
       <r>   -25.4733     5.5213     3.2581 </r>
       <r>   -25.3720     4.4037     3.7045 </r>
       <r>   -25.2706     2.1466     3.9221 </r>
       <r>   -25.1693     0.6390     3.9868 </r>
       <r>   -25.0679     0.1160     3.9986 </r>
       <r>   -24.9665     0.0128     3.9999 </r>
       <r>   -24.8652     0.0009     4.0000 </r>
       <r>   -24.7638     0.0000     4.0000 </r>
       <r>   -24.6624     0.0000     4.0000 </r>
       <r>   -24.5611     0.0000     4.0000 </r>
       <r>   -24.4597     0.0000     4.0000 </r>
       <r>   -24.3584     0.0000     4.0000 </r>
       <r>   -24.2570     0.0000     4.0000 </r>
       <r>   -24.1556     0.0000     4.0000 </r>
       <r>   -24.0543     0.0002     4.0000 </r>
       <r>   -23.9529     0.0030     4.0003 </r>
       <r>   -23.8515     0.0357     4.0039 </r>
       <r>   -23.7502     0.2599     4.0303 </r>
       <r>   -23.6488     1.1529     4.1471 </r>
       <r>   -23.5475     3.1219     4.4636 </r>
       <r>   -23.4461     5.1644     4.9871 </r>
       <r>   -23.3447     5.2222     5.5164 </r>
       <r>   -23.2434     3.2284     5.8436 </r>
       <r>   -23.1420     1.2259     5.9679 </r>
       <r>   -23.0406     0.3518     6.0036 </r>
       <r>   -22.9393     0.4798     6.0522 </r>
       <r>   -22.8379     1.6728     6.2217 </r>
       <r>   -22.7366     3.8647     6.6135 </r>
       <r>   -22.6352     5.4668     7.1676 </r>
       <r>   -22.5338     4.7274     7.6468 </r>
       <r>   -22.4325     2.4986     7.9001 </r>
       <r>   -22.3311     0.8066     7.9818 </r>
       <r>   -22.2297     0.1589     7.9979 </r>
       <r>   -22.1284     0.0191     7.9999 </r>
       <r>   -22.0270     0.0014     8.0000 </r>
       <r>   -21.9257     0.0001     8.0000 </r>
       <r>   -21.8243     0.0000     8.0000 </r>
       <r>   -21.7229     0.0000     8.0000 </r>
       <r>   -21.6216     0.0000     8.0000 </r>
       <r>   -21.5202     0.0000     8.0000 </r>
       <r>   -21.4188     0.0000     8.0000 </r>
       <r>   -21.3175     0.0000     8.0000 </r>
       <r>   -21.2161     0.0000     8.0000 </r>
       <r>   -21.1147     0.0000     8.0000 </r>
       <r>   -21.0134     0.0000     8.0000 </r>
       <r>   -20.9120     0.0000     8.0000 </r>
       <r>   -20.8107     0.0000     8.0000 </r>
       <r>   -20.7093     0.0000     8.0000 </r>
       <r>   -20.6079     0.0000     8.0000 </r>
       <r>   -20.5066     0.0000     8.0000 </r>
       <r>   -20.4052     0.0000     8.0000 </r>
       <r>   -20.3038     0.0000     8.0000 </r>
       <r>   -20.2025     0.0001     8.0000 </r>
       <r>   -20.1011     0.0027     8.0003 </r>
       <r>   -19.9998     0.0332     8.0037 </r>
       <r>   -19.8984     0.2457     8.0286 </r>
       <r>   -19.7970     1.1075     8.1408 </r>
       <r>   -19.6957     3.0468     8.4496 </r>
       <r>   -19.5943     5.1206     8.9687 </r>
       <r>   -19.4929     5.2605     9.5019 </r>
       <r>   -19.3916     3.3035     9.8368 </r>
       <r>   -19.2902     1.2675     9.9652 </r>
       <r>   -19.1889     0.2968     9.9953 </r>
       <r>   -19.0875     0.0424     9.9996 </r>
       <r>   -18.9861     0.0037    10.0000 </r>
       <r>   -18.8848     0.0003    10.0000 </r>
       <r>   -18.7834     0.0024    10.0003 </r>
       <r>   -18.6820     0.0297    10.0033 </r>
       <r>   -18.5807     0.2253    10.0261 </r>
       <r>   -18.4793     1.0404    10.1316 </r>
       <r>   -18.3780     2.9325    10.4288 </r>
       <r>   -18.2766     5.0493    10.9406 </r>
       <r>   -18.1752     5.3143    11.4793 </r>
       <r>   -18.0739     3.4190    11.8259 </r>
       <r>   -17.9725     1.3441    11.9621 </r>
       <r>   -17.8711     0.3252    11.9951 </r>
       <r>   -17.7698     0.0799    12.0032 </r>
       <r>   -17.6684     0.2472    12.0282 </r>
       <r>   -17.5671     1.0990    12.1396 </r>
       <r>   -17.4657     3.0321    12.4470 </r>
       <r>   -17.3643     5.1117    12.9651 </r>
       <r>   -17.2630     5.2677    13.4990 </r>
       <r>   -17.1616     3.3183    13.8354 </r>
       <r>   -17.0602     1.2771    13.9648 </r>
       <r>   -16.9589     0.3000    13.9952 </r>
       <r>   -16.8575     0.0430    13.9996 </r>
       <r>   -16.7561     0.0040    14.0000 </r>
       <r>   -16.6548     0.0042    14.0004 </r>
       <r>   -16.5534     0.0451    14.0050 </r>
       <r>   -16.4521     0.3114    14.0366 </r>
       <r>   -16.3507     1.3111    14.1695 </r>
       <r>   -16.2493     3.3700    14.5110 </r>
       <r>   -16.1480     5.2922    15.0475 </r>
       <r>   -16.0466     5.0802    15.5624 </r>
       <r>   -15.9452     2.9809    15.8646 </r>
       <r>   -15.8439     1.0685    15.9729 </r>
       <r>   -15.7425     0.2337    15.9966 </r>
       <r>   -15.6412     0.0312    15.9997 </r>
       <r>   -15.5398     0.0025    16.0000 </r>
       <r>   -15.4384     0.0001    16.0000 </r>
       <r>   -15.3371     0.0001    16.0000 </r>
       <r>   -15.2357     0.0020    16.0002 </r>
       <r>   -15.1343     0.0253    16.0028 </r>
       <r>   -15.0330     0.1988    16.0229 </r>
       <r>   -14.9316     0.9504    16.1193 </r>
       <r>   -14.8303     2.7723    16.4003 </r>
       <r>   -14.7289     4.9400    16.9010 </r>
       <r>   -14.6275     5.3805    17.4464 </r>
       <r>   -14.5262     3.5831    17.8096 </r>
       <r>   -14.4248     1.4691    17.9585 </r>
       <r>   -14.3234     0.4700    18.0061 </r>
       <r>   -14.2221     0.6607    18.0731 </r>
       <r>   -14.1207     2.0772    18.2837 </r>
       <r>   -14.0194     4.3278    18.7223 </r>
       <r>   -13.9180     5.5235    19.2822 </r>
       <r>   -13.8166     4.3107    19.7192 </r>
       <r>   -13.7153     2.0708    19.9291 </r>
       <r>   -13.6139     0.7357    20.0036 </r>
       <r>   -13.5125     0.8306    20.0878 </r>
       <r>   -13.4112     2.3421    20.3252 </r>
       <r>   -13.3098     4.5809    20.7895 </r>
       <r>   -13.2085     5.5014    21.3472 </r>
       <r>   -13.1071     4.0402    21.7567 </r>
       <r>   -13.0057     1.8245    21.9416 </r>
       <r>   -12.9044     0.6065    22.0031 </r>
       <r>   -12.8030     0.6967    22.0737 </r>
       <r>   -12.7016     2.0983    22.2864 </r>
       <r>   -12.6003     4.3464    22.7270 </r>
       <r>   -12.4989     5.5232    23.2868 </r>
       <r>   -12.3975     4.2911    23.7218 </r>
       <r>   -12.2962     2.0374    23.9283 </r>
       <r>   -12.1948     0.5908    23.9882 </r>
       <r>   -12.0935     0.1066    23.9990 </r>
       <r>   -11.9921     0.0380    24.0029 </r>
       <r>   -11.8907     0.2085    24.0240 </r>
       <r>   -11.7894     0.9909    24.1244 </r>
       <r>   -11.6880     2.9353    24.4220 </r>
       <r>   -11.5866     5.5979    24.9894 </r>
       <r>   -11.4853     7.4690    25.7465 </r>
       <r>   -11.3839     7.8989    26.5471 </r>
       <r>   -11.2826     6.9902    27.2557 </r>
       <r>   -11.1812     4.9658    27.7590 </r>
       <r>   -11.0798     3.6574    28.1297 </r>
       <r>   -10.9785     5.2046    28.6573 </r>
       <r>   -10.8771     8.7178    29.5409 </r>
       <r>   -10.7757    10.4179    30.5969 </r>
       <r>   -10.6744     8.2792    31.4361 </r>
       <r>   -10.5730     4.9053    31.9333 </r>
       <r>   -10.4717     3.9179    32.3305 </r>
       <r>   -10.3703     5.7031    32.9086 </r>
       <r>   -10.2689     8.1601    33.7357 </r>
       <r>   -10.1676    10.2550    34.7752 </r>
       <r>   -10.0662    12.4298    36.0351 </r>
       <r>    -9.9648    13.8522    37.4392 </r>
       <r>    -9.8635    12.4428    38.7004 </r>
       <r>    -9.7621     8.1410    39.5256 </r>
       <r>    -9.6608     3.9612    39.9271 </r>
       <r>    -9.5594     2.6623    40.1970 </r>
       <r>    -9.4580     4.3116    40.6340 </r>
       <r>    -9.3567     6.9645    41.3400 </r>
       <r>    -9.2553     8.9024    42.2423 </r>
       <r>    -9.1539    10.0492    43.2609 </r>
       <r>    -9.0526    10.3518    44.3102 </r>
       <r>    -8.9512     9.2411    45.2469 </r>
       <r>    -8.8499     7.5830    46.0156 </r>
       <r>    -8.7485     7.1728    46.7426 </r>
       <r>    -8.6471     7.8786    47.5412 </r>
       <r>    -8.5458     8.2352    48.3759 </r>
       <r>    -8.4444     7.4190    49.1280 </r>
       <r>    -8.3430     5.1815    49.6532 </r>
       <r>    -8.2417     2.4906    49.9056 </r>
       <r>    -8.1403     0.7664    49.9833 </r>
       <r>    -8.0390     0.1463    49.9981 </r>
       <r>    -7.9376     0.0171    49.9999 </r>
       <r>    -7.8362     0.0012    50.0000 </r>
       <r>    -7.7349     0.0001    50.0000 </r>
       <r>    -7.6335     0.0000    50.0000 </r>
       <r>    -7.5321     0.0000    50.0000 </r>
       <r>    -7.4308     0.0001    50.0000 </r>
       <r>    -7.3294     0.0017    50.0002 </r>
       <r>    -7.2280     0.0227    50.0025 </r>
       <r>    -7.1267     0.1822    50.0209 </r>
       <r>    -7.0253     0.8919    50.1114 </r>
       <r>    -6.9240     2.6637    50.3814 </r>
       <r>    -6.8226     4.8597    50.8740 </r>
       <r>    -6.7212     5.4219    51.4235 </r>
       <r>    -6.6199     3.7298    51.8016 </r>
       <r>    -6.5185     1.8001    51.9841 </r>
       <r>    -6.4171     1.5497    52.1411 </r>
       <r>    -6.3158     3.1972    52.4652 </r>
       <r>    -6.2144     5.2403    52.9964 </r>
       <r>    -6.1131     5.6328    53.5673 </r>
       <r>    -6.0117     4.8217    54.0561 </r>
       <r>    -5.9103     4.9968    54.5626 </r>
       <r>    -5.8090     5.7812    55.1486 </r>
       <r>    -5.7076     5.2125    55.6769 </r>
       <r>    -5.6062     4.0860    56.0911 </r>
       <r>    -5.5049     4.4913    56.5464 </r>
       <r>    -5.4035     5.5721    57.1112 </r>
       <r>    -5.3022     4.9185    57.6097 </r>
       <r>    -5.2008     2.7158    57.8850 </r>
       <r>    -5.0994     0.9189    57.9781 </r>
       <r>    -4.9981     0.1898    57.9974 </r>
       <r>    -4.8967     0.0239    57.9998 </r>
       <r>    -4.7953     0.0018    58.0000 </r>
       <r>    -4.6940     0.0001    58.0000 </r>
       <r>    -4.5926     0.0000    58.0000 </r>
       <r>    -4.4913     0.0000    58.0000 </r>
       <r>    -4.3899     0.0000    58.0000 </r>
       <r>    -4.2885     0.0000    58.0000 </r>
       <r>    -4.1872     0.0000    58.0000 </r>
       <r>    -4.0858     0.0000    58.0000 </r>
       <r>    -3.9844     0.0000    58.0000 </r>
       <r>    -3.8831     0.0000    58.0000 </r>
       <r>    -3.7817     0.0000    58.0000 </r>
       <r>    -3.6804     0.0000    58.0000 </r>
       <r>    -3.5790     0.0000    58.0000 </r>
       <r>    -3.4776     0.0000    58.0000 </r>
       <r>    -3.3763     0.0000    58.0000 </r>
       <r>    -3.2749     0.0000    58.0000 </r>
       <r>    -3.1735     0.0000    58.0000 </r>
       <r>    -3.0722     0.0000    58.0000 </r>
       <r>    -2.9708     0.0000    58.0000 </r>
       <r>    -2.8694     0.0000    58.0000 </r>
       <r>    -2.7681     0.0000    58.0000 </r>
       <r>    -2.6667     0.0000    58.0000 </r>
       <r>    -2.5654     0.0000    58.0000 </r>
       <r>    -2.4640     0.0000    58.0000 </r>
       <r>    -2.3626     0.0000    58.0000 </r>
       <r>    -2.2613     0.0000    58.0000 </r>
       <r>    -2.1599     0.0000    58.0000 </r>
       <r>    -2.0585     0.0000    58.0000 </r>
       <r>    -1.9572     0.0000    58.0000 </r>
       <r>    -1.8558     0.0000    58.0000 </r>
       <r>    -1.7545     0.0004    58.0000 </r>
       <r>    -1.6531     0.0074    58.0008 </r>
       <r>    -1.5517     0.0748    58.0084 </r>
       <r>    -1.4504     0.4654    58.0555 </r>
       <r>    -1.3490     1.7971    58.2377 </r>
       <r>    -1.2476     4.4252    58.6863 </r>
       <r>    -1.1463     7.3192    59.4282 </r>
       <r>    -1.0449     8.7565    60.3157 </r>
       <r>    -0.9436     7.9573    61.1223 </r>
       <r>    -0.8422     5.3731    61.6669 </r>
       <r>    -0.7408     2.7497    61.9457 </r>
       <r>    -0.6395     2.1079    62.1593 </r>
       <r>    -0.5381     4.2838    62.5935 </r>
       <r>    -0.4367     8.5521    63.4604 </r>
       <r>    -0.3354    12.9315    64.7712 </r>
       <r>    -0.2340    15.7934    66.3720 </r>
       <r>    -0.1327    17.9369    68.1902 </r>
       <r>    -0.0313    22.5845    70.4794 </r>
       <r>     0.0701    30.3079    73.5515 </r>
       <r>     0.1714    34.2730    77.0255 </r>
       <r>     0.2728    27.7047    79.8337 </r>
       <r>     0.3742    14.8991    81.3439 </r>
       <r>     0.4755     5.1655    81.8675 </r>
       <r>     0.5769     1.1359    81.9827 </r>
       <r>     0.6782     0.1568    81.9986 </r>
       <r>     0.7796     0.0135    81.9999 </r>
       <r>     0.8810     0.0007    82.0000 </r>
       <r>     0.9823     0.0000    82.0000 </r>
       <r>     1.0837     0.0000    82.0000 </r>
       <r>     1.1851     0.0000    82.0000 </r>
       <r>     1.2864     0.0000    82.0000 </r>
       <r>     1.3878     0.0000    82.0000 </r>
       <r>     1.4892     0.0000    82.0000 </r>
       <r>     1.5905     0.0000    82.0000 </r>
       <r>     1.6919     0.0000    82.0000 </r>
       <r>     1.7932     0.0000    82.0000 </r>
       <r>     1.8946     0.0000    82.0000 </r>
       <r>     1.9960     0.0000    82.0000 </r>
       <r>     2.0973     0.0000    82.0000 </r>
       <r>     2.1987     0.0000    82.0000 </r>
      </set>
     </set>
    </array>
   </total>
  </dos>
 </calculation>
 <structure name="finalpos" >
  <crystal>
   <varray name="basis" >
    <v>      30.00000000       0.00000000       0.00000000 </v>
    <v>       0.00000000      30.00000000       0.00000000 </v>
    <v>       0.00000000       0.00000000      30.00000000 </v>
   </varray>
   <i name="volume">  27000.00000000 </i>
   <varray name="rec_basis" >
    <v>       0.03333333       0.00000000       0.00000000 </v>
    <v>       0.00000000       0.03333333       0.00000000 </v>
    <v>       0.00000000       0.00000000       0.03333333 </v>
   </varray>
  </crystal>
  <varray name="positions" >
   <v>       0.37928451       0.53499359       0.49605278 </v>
   <v>       0.37840228       0.48201591       0.46912353 </v>
   <v>       0.38579342       0.48490744       0.52789528 </v>
   <v>       0.45030935       0.44175720       0.51142550 </v>
   <v>       0.52117207       0.42532469       0.49980907 </v>
   <v>       0.56426658       0.45867234       0.43757663 </v>
   <v>       0.52279785       0.50072495       0.43025042 </v>
   <v>       0.50950798       0.44364480       0.42002934 </v>
   <v>       0.51557303       0.54433511       0.50464590 </v>
   <v>       0.56235718       0.55404183       0.58662662 </v>
   <v>       0.60454173       0.55137357       0.54519997 </v>
   <v>       0.56287674       0.59412077       0.54242737 </v>
   <v>       0.39376456       0.50148304       0.49616950 </v>
   <v>       0.44362764       0.50524057       0.48872984 </v>
   <v>       0.51535602       0.46023497       0.49041447 </v>
   <v>       0.52866312       0.46641512       0.44144602 </v>
   <v>       0.54681416       0.48632547       0.52200527 </v>
   <v>       0.56916657       0.55911132       0.55088698 </v>
   <v>       0.46746565       0.46781615       0.49828176 </v>
   <v>       0.54110702       0.53103209       0.52326440 </v>
   <v>       0.46105637       0.54015052       0.47461780 </v>
   <v>       0.57609978       0.46627989       0.54311911 </v>
  </varray>
 </structure>
</modeling>
0.47692864       0.49687213 </v>
   <v>       0.54343194      <v>       0.54361234       0.53690   <v>       0.45550059       0.54267954       0.53432625 </v>
   <v>       0.58259604       0.48859</modeling>
47057223 </v>
</modeling>
 </structure>
</modeling>
 </structure>
</modeling>
